-29.056 -8.156 -21.094
-29.056 -8.156 -21.094
-32.098 -10.951 -21.167
-29.062 -8.155 -21.100
-32.632 -10.938 -21.712
-32.098 -10.951 -21.167
-32.098 -10.951 -21.167
-26.176 -8.090 -18.621
-29.861 -7.978 -22.221
-29.062 -8.155 -21.100
-29.062 -8.155 -21.100
-29.062 -8.155 -21.100
-29.062 -8.155 -21.100
-32.632 -10.938 -21.712
-32.632 -10.938 -21.712
-32.632 -10.938 -21.712
-32.098 -10.951 -21.167
-26.176 -8.090 -18.621
-31.768 -10.962 -20.825
-26.176 -8.090 -18.621
-32.632 -10.938 -21.712
-32.158 -10.271 -21.970
-30.787 -9.439 -21.362
-25.516 -7.919 -18.140
-32.632 -10.938 -21.713
-29.861 -7.978 -22.221
-32.098 -10.951 -21.167
-32.098 -10.951 -21.167
-32.632 -10.938 -21.712
-30.787 -9.439 -21.362
-32.098 -10.951 -21.167
-32.098 -10.951 -21.167
-26.176 -8.090 -18.621
-32.098 -10.951 -21.167
-19.020 -9.713 -9.310
-29.860 -7.978 -22.221
-29.860 -7.978 -22.221
-26.176 -8.090 -18.620
-29.061 -8.155 -21.100
-29.860 -7.978 -22.221
-25.107 -8.803 -16.487
-26.176 -8.090 -18.620
-19.020 -9.713 -9.310
-32.098 -10.951 -21.167
-29.445 -7.988 -21.796
-32.098 -10.951 -21.167
-25.520 -7.920 -18.144
-25.520 -7.920 -18.144
-31.769 -10.962 -20.825
-32.098 -10.950 -21.167
-32.098 -10.951 -21.167
-25.153 -7.952 -17.745
-32.098 -10.951 -21.167
-32.098 -10.951 -21.167
-32.098 -10.951 -21.167
-26.176 -8.090 -18.621
-32.098 -10.951 -21.167
-26.906 -8.738 -18.349
-27.990 -10.776 -17.203
-17.346 -10.725 -6.932
-27.291 -9.608 -17.761
-28.389 -10.703 -17.677
-25.012 -10.057 -15.073
-13.018 -9.083 -4.272
-25.119 -8.792 -16.521
-28.442 -10.699 -17.734
-17.436 -11.711 -5.779
-28.442 -10.699 -17.734
-25.538 -7.913 -18.168
-28.442 -10.699 -17.734
-17.388 -10.720 -6.979
-26.483 -8.764 -17.897
-26.952 -8.733 -18.399
-25.905 -7.881 -18.566
-26.952 -8.733 -18.399
-26.952 -8.733 -18.399
-24.252 -6.507 -18.268
-25.905 -7.881 -18.566
-26.793 -9.064 -17.743
-17.432 -11.711 -5.774
-28.442 -10.699 -17.734
-28.442 -10.699 -17.734
-17.436 -11.711 -5.779
-17.436 -11.711 -5.779
-17.388 -10.720 -6.979
-23.565 -5.147 -18.880
-26.851 -7.858 -19.251
-23.565 -5.147 -18.880
-17.445 -11.711 -5.788
-28.442 -10.699 -17.734
-25.905 -7.881 -18.567
-25.538 -7.913 -18.168
-26.851 -7.858 -19.251
-18.540 -8.914 -9.693
-17.392 -10.720 -6.984
-17.445 -11.710 -5.789
-28.442 -10.699 -17.734
-17.388 -10.720 -6.979
-26.793 -9.064 -17.743
-17.432 -11.711 -5.775
-17.385 -10.721 -6.976
-17.385 -10.721 -6.976
-17.385 -10.721 -6.976
-17.106 -11.746 -5.416
-17.432 -11.711 -5.774
-28.442 -10.699 -17.734
-25.788 -7.858 -18.477
-17.388 -10.720 -6.980
-17.436 -11.711 -5.779
-26.792 -9.064 -17.743
-17.100 -11.747 -5.409
-19.382 -10.007 -9.491
-24.250 -6.507 -18.265
-17.432 -11.711 -5.774
-23.562 -5.147 -18.876
-17.386 -10.721 -6.976
-17.386 -10.721 -6.976
-17.032 -11.742 -5.348
-17.407 -10.723 -6.995
-24.396 -7.296 -17.215
-17.462 -11.716 -5.799
-17.407 -10.723 -6.995
-25.561 -7.912 -18.192
-17.407 -10.723 -6.995
-18.808 -11.554 -7.270
-8.125 -10.652 2.546
-28.081 -10.774 -17.296
-28.483 -10.701 -17.773
-25.082 -10.059 -15.142
-17.408 -10.723 -6.996
-25.086 -10.058 -15.147
-24.399 -7.296 -17.218
-17.462 -11.715 -5.800
-17.462 -11.715 -5.800
-17.462 -11.715 -5.800
-25.566 -7.911 -18.197
-17.903 -11.518 -6.418
-8.125 -10.651 2.545
-17.462 -11.715 -5.800
-28.483 -10.701 -17.773
-25.320 -8.149 -17.320
-18.815 -11.549 -7.282
-17.139 -11.751 -5.443
-17.139 -11.751 -5.443
-17.466 -11.715 -5.804
-28.483 -10.701 -17.773
-17.410 -10.723 -6.998
-28.483 -10.701 -17.773
-17.410 -10.723 -6.998
-17.410 -10.723 -6.998
-17.141 -11.750 -5.447
-28.483 -10.701 -17.773
-17.410 -10.723 -6.998
-17.036 -11.741 -5.353
-19.407 -10.007 -9.517
-17.410 -10.723 -6.998
-17.466 -11.715 -5.804
-28.483 -10.701 -17.773
-19.407 -10.007 -9.517
-25.922 -7.880 -18.584
-17.410 -10.723 -6.998
-17.911 -11.517 -6.427
-25.922 -7.880 -18.584
-28.920 -10.709 -18.202
-17.409 -10.723 -6.997
-28.483 -10.701 -17.773
-17.466 -11.715 -5.804
-17.905 -11.518 -6.421
-26.834 -9.069 -17.779
-17.407 -10.723 -6.995
-17.462 -11.716 -5.799
-17.462 -11.716 -5.799
-17.462 -11.716 -5.799
-18.807 -11.554 -7.269
-17.134 -11.752 -5.438
-17.407 -10.723 -6.995
-28.483 -10.701 -17.773
-25.922 -7.880 -18.584
-17.410 -10.723 -6.998
-17.410 -10.723 -6.998
-18.815 -11.549 -7.282
-17.908 -11.518 -6.424
-17.466 -11.715 -5.804
-17.466 -11.715 -5.804
-17.905 -11.518 -6.421
-17.905 -11.518 -6.421
-17.466 -11.715 -5.804
-17.466 -11.715 -5.804
-17.136 -11.751 -5.440
-17.466 -11.715 -5.804
-17.410 -10.723 -6.998
-17.911 -11.517 -6.427
-17.037 -11.741 -5.353
-28.484 -10.701 -17.773
-17.907 -11.518 -6.422
-17.907 -11.518 -6.422
-28.078 -10.774 -17.293
-18.815 -11.550 -7.281
-18.815 -11.550 -7.281
-17.410 -10.723 -6.998
-23.588 -5.144 -18.906
-17.146 -11.749 -5.453
-18.815 -11.556 -7.275
-28.484 -10.701 -17.773
-25.565 -7.911 -18.196
-17.466 -11.715 -5.804
-17.466 -11.715 -5.804
-25.320 -8.149 -17.320
-17.410 -10.723 -6.998
-17.466 -11.715 -5.804
-25.565 -7.911 -18.196
-17.410 -10.723 -6.998
-18.815 -11.549 -7.282
-24.399 -7.296 -17.218
-17.466 -11.715 -5.804
-25.565 -7.911 -18.196
-17.410 -10.723 -6.998
-23.588 -5.144 -18.906
-17.902 -11.555 -6.345
-17.466 -11.715 -5.804
-25.565 -7.911 -18.196
-18.554 -8.917 -9.704
-17.466 -11.715 -5.804
-17.410 -10.723 -6.999
-24.184 -4.861 -19.794
-18.817 -11.549 -7.284
-17.412 -10.723 -7.001
-8.128 -10.651 2.542
-23.600 -5.143 -18.919
-18.817 -11.549 -7.284
-17.412 -10.723 -7.001
-17.467 -11.715 -5.805
-11.523 -5.115 -7.539
-25.091 -10.058 -15.153
-17.158 -11.778 -5.440
-17.158 -11.778 -5.440
-23.146 -5.191 -18.412
-29.445 -7.988 -21.796
-32.098 -10.951 -21.167
-19.020 -9.713 -9.311
-31.759 -10.210 -21.627
-23.145 -5.191 -18.410
-25.152 -7.952 -17.744
-32.098 -10.951 -21.167
-32.098 -10.951 -21.167
-32.098 -10.951 -21.167
-31.759 -10.210 -21.627
-29.445 -7.988 -21.796
-32.098 -10.951 -21.167
-25.153 -7.952 -17.745
-31.628 -10.964 -20.682
-32.145 -10.954 -21.211
-30.286 -9.421 -20.880
-16.729 -11.787 -5.006
-32.144 -10.954 -21.210
-23.992 -4.883 -19.573
-23.636 -5.085 -19.010
-19.070 -9.710 -9.363
-16.749 -11.817 -4.999
-17.282 -10.741 -6.847
-25.372 -7.933 -17.976
-19.070 -9.710 -9.363
-31.841 -10.211 -21.709
-17.290 -10.740 -6.857
-16.758 -11.818 -5.008
-32.188 -10.953 -21.255
-12.947 -9.098 -4.181
-16.755 -11.818 -5.006
-7.994 -10.705 2.730
-17.291 -10.739 -6.859
-19.411 -10.059 -9.479
-23.412 -5.166 -18.702
-32.203 -10.951 -21.272
-32.203 -10.951 -21.272
-16.755 -11.818 -5.005
-31.859 -10.208 -21.729
-31.859 -10.208 -21.729
-31.859 -10.209 -21.729
-30.865 -9.435 -21.444
-31.859 -10.208 -21.729
-23.412 -5.166 -18.702
-31.876 -10.962 -20.932
-19.077 -9.708 -9.372
-19.077 -9.708 -9.372
-32.203 -10.951 -21.272
-19.077 -9.708 -9.372
-32.203 -10.951 -21.272
-19.077 -9.708 -9.372
-11.217 -5.195 -7.136
-32.203 -10.951 -21.271
-17.291 -10.739 -6.859
-23.411 -5.166 -18.701
-32.203 -10.951 -21.271
-32.203 -10.951 -21.271
-32.203 -10.951 -21.271
-23.411 -5.166 -18.701
-17.291 -10.739 -6.859
-23.411 -5.166 -18.701
-19.077 -9.708 -9.372
-17.189 -10.738 -6.757
-25.380 -7.932 -17.987
-31.858 -10.209 -21.728
-17.292 -10.739 -6.861
-23.411 -5.166 -18.701
-12.947 -9.098 -4.181
-32.712 -10.938 -21.792
-31.869 -10.962 -20.925
-17.196 -10.736 -6.765
-31.684 -10.962 -20.741
-32.202 -10.951 -21.270
-32.202 -10.951 -21.270
-18.491 -8.917 -9.641
-32.202 -10.951 -21.270
-16.754 -11.818 -5.004
-25.384 -7.932 -17.990
-31.856 -10.209 -21.726
-32.201 -10.951 -21.269
-24.142 -6.523 -18.135
-32.201 -10.951 -21.269
-32.201 -10.951 -21.269
-11.209 -5.198 -7.124
-32.203 -10.951 -21.271
-19.077 -9.708 -9.372
-19.077 -9.708 -9.372
-32.203 -10.951 -21.271
-32.203 -10.951 -21.271
-16.754 -11.812 -5.011
-32.203 -10.951 -21.271
-32.203 -10.951 -21.271
-17.192 -11.793 -5.461
-31.858 -10.209 -21.728
-32.203 -10.951 -21.271
-16.755 -11.818 -5.005
-23.194 -5.188 -18.457
-16.765 -11.816 -5.017
-25.386 -7.932 -17.993
-25.211 -8.159 -17.199
-16.735 -11.825 -4.978
-31.859 -10.208 -21.729
-24.685 -6.279 -18.931
-25.345 -8.150 -17.344
-31.894 -10.207 -21.765
-25.457 -7.926 -18.067
-18.605 -8.884 -9.790
-23.489 -5.158 -18.788
-19.284 -9.279 -10.059
-17.378 -10.734 -6.950
-23.354 -5.174 -18.635
-31.909 -10.963 -20.964
-32.237 -10.952 -21.304
-16.705 -11.825 -4.951
-32.238 -10.952 -21.305
-17.217 -11.793 -5.486
-12.954 -9.096 -4.191
-17.114 -11.789 -5.390
-23.474 -5.160 -18.772
-32.234 -10.952 -21.301
-18.599 -8.886 -9.781
-19.088 -9.706 -9.386
-16.780 -11.819 -5.029
-17.268 -10.733 -6.839
-23.703 -5.077 -19.087
-32.233 -10.952 -21.300
-23.476 -5.160 -18.774
-24.070 -4.874 -19.663
-18.733 -11.766 -6.978
-18.372 -9.870 -8.599
-16.787 -11.819 -5.036
-30.367 -9.415 -20.967
-23.346 -5.174 -18.627
-32.235 -10.952 -21.302
-32.235 -10.953 -21.302
-25.608 -7.908 -18.237
-31.894 -10.207 -21.765
-31.894 -10.207 -21.765
-16.787 -11.819 -5.036
-25.345 -8.150 -17.344
-17.121 -11.788 -5.399
-18.518 -8.882 -9.704
-25.345 -8.150 -17.344
-22.321 -5.057 -17.341
-13.003 -8.981 -4.362
-16.732 -9.876 -6.888
-17.960 -11.885 -6.078
-17.181 -11.791 -5.455
-17.013 -11.797 -5.285
-17.013 -11.797 -5.285
-17.013 -11.798 -5.284
-18.356 -7.374 -11.557
-20.163 -5.227 -15.022
-18.597 -11.794 -6.809
-32.306 -10.926 -21.401
-18.603 -11.795 -6.816
-17.175 -11.792 -5.449
-22.321 -5.057 -17.341
-16.903 -11.802 -5.173
-16.903 -11.802 -5.173
-21.346 -5.109 -16.864
-17.427 -9.802 -8.083
-16.993 -11.798 -5.264
-16.731 -9.876 -6.887
-18.331 -10.006 -8.319
-18.656 -7.360 -11.870
-17.004 -11.813 -5.261
-16.975 -11.797 -5.248
-16.899 -11.802 -5.169
-16.899 -11.802 -5.169
-28.422 -10.735 -17.678
-17.252 -11.724 -5.587
-11.083 -5.039 -7.200
-17.275 -11.723 -5.611
-13.737 -8.893 -5.192
-19.486 -5.212 -14.370
-4.457 -7.804 3.369
-13.706 -9.007 -5.043
-20.259 -5.213 -15.134
-17.449 -11.717 -5.787
-18.267 -10.602 -7.661
-22.418 -5.045 -17.450
-16.793 -9.875 -6.952
-12.153 -8.689 -3.617
-18.597 -10.310 -8.429
-16.794 -9.875 -6.952
-17.270 -11.723 -5.606
-19.475 -5.215 -14.356
-16.794 -9.875 -6.953
-16.794 -9.875 -6.953
-18.008 -11.515 -6.492
-18.008 -11.515 -6.492
-17.270 -11.723 -5.606
-18.102 -11.461 -6.678
-18.469 -10.009 -8.455
-17.994 -11.517 -6.476
-4.459 -7.803 3.366
-9.503 -6.839 -2.738
-22.246 -5.062 -17.261
-18.079 -11.465 -6.652
-16.962 -10.711 -6.535
-18.155 -11.516 -6.638
-20.260 -5.213 -15.134
-4.457 -7.803 3.367
-17.450 -11.717 -5.789
-18.631 -11.384 -7.294
-4.346 -7.818 3.494
-17.281 -11.724 -5.616
-17.451 -11.717 -5.789
-26.409 -7.726 -19.237
-17.745 -11.561 -6.180
-25.870 -7.851 -18.564
-13.101 -9.828 -3.284
-24.248 -4.855 -19.867
-18.665 -8.884 -9.850
-23.891 -5.056 -19.304
-17.388 -11.708 -5.736
-9.439 -6.846 -2.667
-25.988 -7.875 -18.654
-23.891 -5.056 -19.304
-17.388 -11.708 -5.736
-17.388 -11.708 -5.736
-17.746 -11.561 -6.181
-17.489 -10.718 -7.081
-24.825 -6.262 -19.094
-24.665 -6.430 -18.764
-17.061 -11.743 -5.376
-25.990 -7.875 -18.656
-17.777 -11.553 -6.221
-17.389 -11.708 -5.737
-17.746 -11.561 -6.181
-18.368 -8.961 -9.471
-17.087 -11.776 -5.372
-18.511 -11.770 -6.753
-23.850 -7.333 -16.628
-18.389 -8.963 -9.491
-24.009 -4.879 -19.595
-5.027 -9.221 4.216
-17.114 -11.776 -5.400
-17.114 -11.776 -5.400
-16.778 -11.803 -5.042
-17.184 -10.740 -6.749
-17.044 -11.525 -5.521
-23.288 -5.180 -18.561
-17.114 -11.776 -5.400
-18.550 -11.765 -6.797
-16.772 -11.768 -5.073
-18.481 -8.917 -9.631
-17.184 -10.740 -6.749
-24.423 -6.463 -18.481
-25.624 -7.874 -18.292
-18.391 -8.916 -9.542
-17.278 -10.743 -6.842
-25.384 -7.929 -17.992
-23.653 -5.082 -19.031
-18.291 -8.985 -9.369
-4.647 -7.813 3.188
-17.214 -11.780 -5.492
-17.278 -10.743 -6.841
-18.390 -8.916 -9.540
-25.381 -7.929 -17.989
-17.183 -10.741 -6.747
-18.477 -8.919 -9.625
-17.044 -11.525 -5.521
-18.548 -11.765 -6.796
-24.638 -8.980 -15.674
-24.009 -4.879 -19.594
-17.215 -11.781 -5.493
-13.016 -8.806 -4.373
-18.549 -11.765 -6.797
-24.009 -6.476 -18.050
-18.581 -11.776 -6.816
-18.479 -8.917 -9.629
-16.710 -11.806 -4.971
-18.480 -8.917 -9.629
-18.581 -11.776 -6.816
-23.653 -5.082 -19.031
-25.386 -7.928 -17.995
-23.806 -5.137 -19.126
-18.392 -8.915 -9.543
-18.162 -9.862 -8.397
-18.479 -8.918 -9.628
-12.672 -8.927 -3.837
-23.283 -5.180 -18.557
-18.479 -8.918 -9.628
-18.392 -8.915 -9.543
-17.114 -11.776 -5.400
-17.039 -11.526 -5.515
-18.479 -8.918 -9.628
-18.392 -8.915 -9.543
-16.786 -11.806 -5.044
-18.418 -8.946 -9.536
-18.479 -8.918 -9.628
-18.392 -8.915 -9.543
-18.292 -8.985 -9.369
-17.278 -10.743 -6.841
-23.416 -5.165 -18.706
-18.548 -11.765 -6.796
-18.390 -8.916 -9.540
-17.114 -11.776 -5.399
-23.416 -5.165 -18.707
-18.390 -8.916 -9.540
-18.548 -11.765 -6.796
-25.457 -8.122 -17.487
-18.478 -8.918 -9.626
-19.076 -10.032 -9.170
-18.390 -8.916 -9.541
-16.786 -11.805 -5.045
-32.204 -10.951 -21.272
-22.284 -5.061 -17.298
-12.395 -9.972 -2.426
-16.955 -11.798 -5.227
-16.955 -11.797 -5.227
-10.895 -8.834 -2.073
-17.049 -11.783 -5.334
-16.634 -9.891 -6.775
-16.545 -9.887 -6.690
-5.452 -9.219 3.790
-16.977 -11.796 -5.250
-6.090 -6.899 0.830
-16.635 -9.891 -6.776
-16.970 -11.796 -5.243
-16.545 -9.887 -6.690
-10.905 -8.833 -2.084
-16.545 -9.887 -6.690
-16.543 -9.896 -6.679
-19.339 -5.239 -14.192
-4.459 -7.804 3.367
-16.545 -9.886 -6.691
-17.611 -11.373 -6.250
-16.970 -11.797 -5.243
-6.090 -6.899 0.829
-16.545 -9.886 -6.691
-16.970 -11.797 -5.243
-9.456 -6.876 -3.000
-4.372 -7.840 3.488
-9.456 -6.876 -3.000
-16.766 -10.732 -6.316
-16.766 -10.732 -6.316
-16.901 -11.799 -5.174
-16.901 -11.799 -5.174
-12.547 -9.190 -3.713
-6.093 -6.905 0.833
-21.345 -5.109 -16.863
-16.984 -11.796 -5.258
-16.730 -9.876 -6.887
-15.937 -10.750 -5.454
-18.051 -11.884 -6.170
-16.994 -11.798 -5.265
-6.109 -6.902 0.813
-6.107 -6.895 0.809
-16.949 -10.742 -6.495
-17.000 -11.797 -5.272
-5.799 -8.260 2.483
-16.995 -11.798 -5.267
-16.638 -9.881 -6.789
-16.993 -11.798 -5.265
-16.641 -9.871 -6.802
-20.159 -5.226 -15.019
-16.640 -9.872 -6.800
-6.066 -8.226 2.182
-5.910 -6.896 0.935
-5.613 -7.970 2.371
-8.671 -9.185 0.445
-8.671 -9.185 0.445
-5.793 -8.232 2.459
-6.067 -8.224 2.179
-5.570 -7.873 2.321
-7.129 -8.043 0.707
-5.794 -8.232 2.459
-5.654 -8.249 2.614
-5.654 -8.249 2.614
-8.671 -9.185 0.445
-6.670 -6.891 0.062
-5.607 -7.970 2.377
-5.645 -8.247 2.622
-8.657 -9.186 0.459
-5.645 -8.247 2.622
-5.607 -7.970 2.377
-8.657 -9.186 0.459
-6.056 -8.224 2.190
-5.713 -8.261 2.568
-5.607 -7.970 2.377
-5.645 -8.247 2.621
-7.291 -6.023 -1.272
-8.658 -9.186 0.459
-5.434 -8.129 2.695
-5.645 -8.247 2.621
-5.607 -7.970 2.377
-5.607 -7.970 2.377
-5.890 -8.240 2.372
-5.645 -8.247 2.621
-8.911 -9.190 0.212
-5.595 -7.962 2.381
-7.091 -8.042 0.744
-7.977 -8.352 0.332
-7.604 -8.040 0.237
-5.890 -8.240 2.372
-5.715 -7.900 2.206
-7.677 -8.482 0.768
-7.291 -6.022 -1.273
-5.645 -8.247 2.621
-6.371 -7.663 1.262
-7.603 -8.040 0.237
-5.890 -8.240 2.372
-5.645 -8.247 2.621
-8.481 -9.543 1.067
-5.786 -8.232 2.467
-5.890 -8.240 2.372
-8.658 -9.186 0.459
-5.718 -8.014 2.317
-6.057 -8.224 2.188
-5.715 -7.846 2.154
-6.671 -6.892 0.062
-7.600 -8.040 0.241
-8.659 -9.185 0.458
-5.714 -8.261 2.567
-5.645 -8.249 2.623
-5.645 -8.247 2.621
-6.371 -7.663 1.262
-5.711 -8.239 2.547
-5.890 -8.240 2.372
-7.447 -8.624 1.196
-5.655 -7.969 2.327
-7.677 -8.482 0.768
-7.089 -8.042 0.747
-5.645 -8.247 2.621
-5.890 -8.240 2.372
-7.601 -8.040 0.240
-6.165 -7.996 1.853
-7.601 -8.040 0.240
-7.560 -8.373 0.772
-8.658 -9.186 0.459
-5.713 -8.261 2.568
-7.600 -8.040 0.241
-5.714 -8.261 2.567
-5.716 -8.013 2.318
-5.434 -8.129 2.695
-6.373 -7.812 1.456
-6.338 -7.636 1.267
-5.185 -5.900 0.738
-5.594 -7.962 2.381
-5.645 -8.246 2.620
-7.102 -8.271 1.137
-7.925 -9.575 1.657
-5.714 -8.014 2.321
-7.600 -8.040 0.241
-6.420 -7.829 1.427
-7.600 -8.040 0.241
-8.572 -9.224 0.593
-5.713 -8.261 2.568
-7.975 -8.353 0.336
-8.658 -9.186 0.459
-5.891 -8.240 2.371
-5.594 -7.961 2.381
-6.338 -7.636 1.266
-5.239 -7.928 2.711
-6.373 -7.812 1.456
-8.658 -9.186 0.459
-7.599 -8.040 0.242
-7.878 -9.575 1.704
-5.565 -8.039 2.494
-7.878 -9.575 1.704
-7.600 -8.040 0.240
-7.925 -9.575 1.657
-8.683 -9.184 0.433
-7.221 -8.395 1.150
-8.683 -9.184 0.433
-9.483 -9.276 -0.273
-7.291 -6.022 -1.273
-7.989 -8.359 0.328
-5.721 -7.848 2.150
-5.826 -8.279 2.472
-6.987 -9.305 2.339
-6.419 -7.830 1.430
-5.652 -8.249 2.617
-7.574 -8.379 0.765
-7.177 -9.717 2.507
-5.716 -8.016 2.321
-5.652 -8.249 2.616
-8.673 -9.185 0.443
-5.161 -5.882 0.743
-7.246 -8.624 1.398
-5.662 -7.834 2.194
-5.178 -5.893 0.738
-5.826 -8.279 2.472
-5.161 -5.881 0.743
-6.296 -8.133 1.854
-5.404 -7.947 2.563
-8.673 -9.185 0.444
-8.673 -9.185 0.444
-6.856 -7.636 0.745
-7.617 -8.047 0.232
-5.721 -8.263 2.562
-5.721 -8.263 2.562
-7.207 -8.493 1.307
-5.472 -8.020 2.565
-5.603 -7.962 2.373
-5.793 -8.232 2.460
-6.854 -7.636 0.748
-5.342 -8.147 2.810
-5.364 -8.551 3.208
-5.652 -8.249 2.616
-7.611 -8.481 0.827
-7.616 -8.047 0.233
-5.719 -8.016 2.318
-8.673 -9.185 0.444
-5.720 -7.848 2.150
-5.793 -8.232 2.460
-6.652 -6.897 0.088
-8.659 -9.186 0.458
-7.945 -8.356 0.367
-8.912 -9.190 0.211
-7.851 -9.598 1.752
-8.660 -9.186 0.457
-5.190 -5.854 0.687
-8.659 -9.186 0.458
-5.818 -8.278 2.480
-5.331 -6.400 1.092
-5.467 -8.020 2.570
-8.659 -9.186 0.457
-7.271 -8.630 1.379
-5.206 -5.883 0.700
-7.407 -9.693 2.244
-5.711 -8.261 2.571
-8.912 -9.190 0.211
-8.912 -9.190 0.211
-6.056 -8.224 2.191
-5.752 -8.215 2.459
-8.913 -9.190 0.211
-5.597 -7.962 2.379
-6.289 -8.133 1.861
-5.643 -8.247 2.624
-8.660 -9.186 0.457
-6.416 -7.830 1.432
-8.660 -9.186 0.457
-8.660 -9.186 0.457
-5.597 -7.962 2.379
-7.445 -8.624 1.198
-7.589 -8.482 0.849
-7.589 -8.482 0.849
-7.569 -8.045 0.278
-5.712 -8.261 2.570
-7.294 -8.398 1.067
-5.711 -8.261 2.570
-7.279 -8.627 1.369
-8.660 -9.186 0.457
-5.703 -7.920 2.237
-5.178 -5.860 0.705
-5.850 -8.184 2.321
-5.657 -7.833 2.199
-5.711 -8.261 2.571
-5.322 -7.932 2.632
-7.111 -7.708 0.564
-8.661 -9.186 0.456
-6.055 -8.224 2.191
-8.661 -9.186 0.456
-5.322 -7.932 2.632
-5.162 -5.881 0.742
-7.592 -8.481 0.847
-7.592 -8.481 0.847
-7.068 -7.632 0.528
-6.651 -6.897 0.089
-8.660 -9.186 0.457
-8.660 -9.186 0.457
-7.453 -8.479 0.989
-5.657 -7.833 2.199
-5.322 -7.932 2.632
-8.913 -9.191 0.210
-8.660 -9.186 0.457
-7.924 -9.573 1.656
-5.433 -8.128 2.695
-7.179 -8.269 1.057
-7.924 -9.573 1.656
-8.660 -9.186 0.457
-8.660 -9.186 0.457
-7.297 -8.399 1.064
-7.530 -8.377 0.805
-5.609 -7.971 2.375
-5.596 -7.962 2.379
-7.877 -9.574 1.703
-5.657 -7.833 2.199
-7.357 -8.180 0.813
-5.537 -6.912 1.391
-5.657 -7.833 2.199
-7.280 -8.626 1.367
-8.142 -8.493 0.309
-8.661 -9.186 0.456
-5.658 -7.970 2.325
-7.496 -9.735 2.195
-5.537 -6.912 1.390
-5.884 -8.304 2.441
-5.517 -7.859 2.359
-5.751 -8.215 2.460
-5.716 -7.847 2.154
-6.840 -7.637 0.764
-5.716 -7.848 2.154
-7.217 -8.619 1.422
-5.700 -7.919 2.240
-5.434 -8.128 2.694
-5.322 -8.080 2.780
-5.597 -7.962 2.379
-7.924 -9.573 1.656
-5.888 -8.240 2.374
-8.913 -9.190 0.210
-8.913 -9.191 0.210
-5.715 -8.014 2.320
-8.661 -9.186 0.456
-7.924 -9.573 1.656
-8.661 -9.186 0.456
-6.424 -7.830 1.424
-8.575 -9.224 0.590
-5.849 -8.184 2.322
-5.700 -7.919 2.240
-6.838 -7.638 0.766
-7.924 -9.573 1.656
-5.596 -7.962 2.380
-5.851 -8.184 2.322
-8.661 -9.186 0.456
-8.914 -9.190 0.210
-9.182 -9.226 -0.017
-7.374 -6.061 -1.319
-7.215 -6.891 -0.530
-9.174 -9.227 -0.008
-6.377 -7.814 1.454
-8.538 -8.409 -0.159
-7.924 -9.573 1.656
-6.377 -7.814 1.454
-5.419 -8.096 2.698
-5.596 -7.962 2.380
-7.530 -8.377 0.805
-5.596 -7.962 2.379
-5.537 -6.912 1.391
-8.661 -9.186 0.456
-5.703 -7.920 2.238
-5.716 -7.848 2.154
-7.453 -8.479 0.989
-7.179 -8.268 1.057
-5.884 -8.303 2.442
-8.661 -9.186 0.456
-8.913 -9.191 0.210
-5.596 -7.962 2.379
-5.658 -7.970 2.325
-8.579 -9.224 0.586
-5.886 -7.628 1.764
-5.609 -7.971 2.375
-5.713 -8.014 2.322
-5.711 -7.900 2.210
-5.736 -6.896 1.107
-5.885 -8.303 2.440
-7.215 -6.891 -0.530
-8.660 -9.186 0.457
-5.774 -8.073 2.322
-8.660 -9.186 0.457
-7.945 -8.356 0.368
-5.657 -7.833 2.199
-5.710 -8.261 2.571
-5.653 -8.415 2.772
-7.593 -8.481 0.845
-8.581 -9.224 0.583
-9.177 -9.226 -0.012
-5.889 -8.240 2.373
-8.661 -9.186 0.456
-6.843 -7.637 0.761
-5.711 -8.261 2.571
-7.945 -8.355 0.367
-8.661 -9.186 0.456
-5.717 -7.848 2.154
-6.424 -7.831 1.424
-7.357 -8.180 0.814
-7.529 -8.377 0.806
-8.661 -9.186 0.456
-7.924 -9.573 1.656
-5.596 -7.962 2.380
-5.654 -8.059 2.427
-6.424 -7.831 1.424
-5.849 -8.184 2.323
-7.374 -6.061 -1.319
-7.530 -8.377 0.805
-8.144 -8.493 0.307
-6.640 -7.498 0.560
-7.570 -8.045 0.278
-8.191 -8.463 0.218
-7.280 -8.626 1.367
-6.767 -6.067 -0.690
-5.177 -5.858 0.704
-8.576 -9.224 0.589
-8.659 -9.186 0.458
-5.702 -7.920 2.239
-6.424 -7.831 1.425
-7.371 -6.061 -1.317
-7.290 -6.022 -1.272
-8.937 -9.222 0.224
-8.911 -9.191 0.212
-8.658 -9.186 0.459
-8.658 -9.186 0.459
-5.656 -7.833 2.199
-5.149 -5.879 0.754
-7.444 -8.042 0.402
-8.683 -9.184 0.432
-8.683 -9.184 0.433
-7.988 -8.359 0.330
-6.065 -8.225 2.181
-8.924 -9.190 0.199
-7.332 -8.399 1.031
-7.940 -8.490 0.508
-7.853 -9.597 1.750
-8.673 -9.185 0.443
-5.721 -7.848 2.150
-8.673 -9.185 0.443
-7.125 -7.707 0.549
-5.603 -7.962 2.373
-7.469 -8.479 0.973
-7.991 -8.359 0.326
-6.769 -6.034 -0.725
-7.273 -8.630 1.376
-7.174 -8.295 1.088
-5.149 -5.876 0.751
-5.721 -7.848 2.150
-8.673 -9.185 0.443
-7.468 -8.479 0.973
-7.941 -8.490 0.507
-5.721 -7.848 2.150
-5.161 -5.882 0.743
-5.328 -7.932 2.627
-8.673 -9.185 0.443
-6.694 -7.643 0.916
-5.706 -7.920 2.235
-5.861 -8.183 2.310
-7.942 -8.489 0.506
-5.635 -7.832 2.220
-8.576 -8.411 -0.195
-7.468 -8.479 0.973
-6.854 -7.636 0.748
-6.298 -8.133 1.852
-8.925 -9.190 0.198
-5.583 -8.057 2.497
-5.721 -7.848 2.150
-5.718 -8.016 2.319
-5.705 -8.197 2.514
-5.603 -7.962 2.373
-8.674 -9.185 0.443
-5.583 -8.057 2.497
-6.420 -7.830 1.428
-5.898 -8.240 2.364
-7.274 -8.629 1.375
-7.127 -7.706 0.547
-9.184 -9.226 -0.019
-8.926 -9.190 0.197
-5.861 -8.182 2.308
-7.130 -7.706 0.543
-7.294 -6.025 -1.273
-5.471 -8.020 2.566
-8.674 -9.185 0.443
-8.161 -8.493 0.290
-8.815 -9.221 0.343
-5.583 -8.057 2.497
-9.193 -9.225 -0.029
-8.674 -9.185 0.443
-5.721 -7.848 2.150
-7.274 -8.629 1.375
-8.155 -8.493 0.296
-7.790 -9.598 1.813
-8.949 -9.222 0.210
-7.274 -8.629 1.374
-8.950 -9.222 0.210
-5.721 -7.848 2.150
-7.611 -8.481 0.827
-7.989 -8.359 0.328
-7.294 -6.025 -1.273
-8.674 -9.185 0.443
-8.674 -9.185 0.443
-7.943 -8.489 0.505
-5.721 -7.848 2.150
-7.939 -8.490 0.508
-7.616 -8.047 0.233
-5.859 -8.181 2.309
-5.721 -8.263 2.562
-6.856 -7.635 0.745
-6.695 -7.642 0.915
-8.953 -9.222 0.206
-6.769 -6.041 -0.719
-7.786 -8.488 0.660
-7.616 -8.047 0.233
-5.707 -8.196 2.512
-8.809 -9.222 0.350
-6.856 -7.635 0.745
-8.675 -9.185 0.441
-7.988 -8.359 0.329
-5.333 -8.083 2.770
-5.616 -7.971 2.369
-5.853 -7.554 1.725
-5.902 -6.897 0.945
-7.127 -7.706 0.547
-7.034 -7.374 0.342
-6.769 -6.056 -0.703
-8.674 -9.185 0.442
-5.721 -7.848 2.150
-5.760 -8.213 2.449
-7.129 -7.706 0.544
-8.951 -9.222 0.210
-5.894 -8.304 2.431
-6.065 -8.225 2.181
-8.307 -9.188 0.816
-8.601 -9.223 0.563
-6.065 -8.225 2.182
-7.036 -7.378 0.344
-5.583 -8.057 2.497
-7.176 -8.294 1.084
-7.127 -7.706 0.546
-5.706 -8.197 2.513
-7.939 -8.490 0.509
-5.766 -8.081 2.333
-7.574 -8.379 0.765
-5.571 -7.874 2.320
-6.914 -7.016 0.081
-6.447 -8.349 1.905
-5.760 -8.213 2.449
-8.809 -9.222 0.350
-8.208 -8.463 0.201
-6.914 -7.016 0.081
-7.359 -7.700 0.307
-7.612 -8.481 0.825
-6.855 -7.635 0.747
-5.581 -8.056 2.497
-5.895 -8.303 2.430
-8.674 -9.185 0.443
-8.926 -9.190 0.197
-5.678 -8.094 2.438
-5.762 -8.214 2.448
-8.213 -8.462 0.194
-5.707 -8.197 2.513
-5.334 -8.082 2.770
-7.942 -8.489 0.505
-5.902 -6.897 0.945
-6.448 -8.349 1.904
-5.861 -8.182 2.309
-8.213 -8.462 0.194
-5.861 -8.182 2.308
-6.229 -7.936 1.692
-6.067 -8.224 2.179
-7.810 -8.180 0.367
-8.674 -9.185 0.442
-7.213 -7.641 0.424
-7.294 -6.024 -1.274
-6.693 -7.642 0.917
-7.128 -7.706 0.545
-6.066 -8.224 2.180
-7.294 -6.025 -1.273
-6.692 -7.643 0.918
-5.902 -6.897 0.945
-7.363 -7.700 0.302
-6.855 -7.635 0.747
-5.706 -8.197 2.513
-7.274 -8.629 1.374
-6.317 -8.139 1.834
-23.122 -4.897 -18.691
-12.524 -9.054 -3.817
-13.223 -9.949 -3.312
-13.429 -10.014 -3.452
-13.004 -8.795 -4.367
-23.424 -4.911 -18.977
-13.006 -8.794 -4.370
-13.050 -9.656 -3.414
-13.006 -8.794 -4.370
-13.050 -9.656 -3.414
-14.002 -9.104 -5.014
-14.002 -9.104 -5.014
-21.976 -4.938 -17.507
-4.673 -6.427 1.773
-13.430 -10.013 -3.454
-13.004 -8.794 -4.368
-13.004 -8.794 -4.368
-23.148 -4.895 -18.720
-22.523 -4.925 -18.068
-13.005 -8.794 -4.369
-13.050 -9.656 -3.414
-12.787 -9.107 -4.031
-12.266 -9.191 -3.077
-13.051 -9.656 -3.415
-4.613 -8.020 3.422
-12.268 -9.192 -3.080
-6.615 -6.232 -0.382
-14.070 -9.743 -4.333
-23.657 -4.888 -19.237
-13.382 -9.081 -4.421
-23.657 -4.888 -19.237
-13.006 -8.794 -4.370
-20.470 -5.054 -16.058
-20.470 -5.054 -16.058
-20.642 -5.024 -15.704
-21.711 -5.057 -16.732
-13.703 -10.089 -3.654
-14.222 -9.642 -4.588
-13.291 -8.802 -4.658
-20.642 -5.024 -15.704
-13.702 -10.089 -3.653
-13.290 -8.802 -4.657
-21.884 -5.040 -16.923
-4.658 -6.423 1.784
-13.288 -8.802 -4.655
-12.168 -9.155 -3.015
-20.602 -5.025 -15.658
-12.163 -9.160 -3.005
-21.112 -5.026 -16.165
-13.292 -8.802 -4.659
-13.292 -8.802 -4.659
-21.886 -5.039 -16.926
-20.225 -5.043 -15.827
-13.290 -8.802 -4.657
-13.290 -8.802 -4.657
-13.703 -10.089 -3.653
-20.648 -5.023 -15.710
-12.163 -9.160 -3.005
-13.515 -8.805 -4.887
-20.476 -5.053 -16.065
-13.515 -8.805 -4.887
-4.655 -6.423 1.787
-19.785 -5.034 -15.387
-12.166 -9.159 -3.008
-13.289 -8.802 -4.656
-24.155 -7.247 -17.034
-21.976 -4.938 -17.508
-4.674 -6.427 1.773
-23.152 -4.895 -18.725
-5.571 -9.274 3.725
-12.416 -9.117 -3.303
-23.663 -4.888 -19.244
-13.028 -9.119 -4.257
-23.926 -6.293 -18.160
-13.184 -8.795 -4.554
-20.473 -5.053 -16.061
-19.938 -4.989 -15.036
-13.919 -9.678 -4.247
-12.264 -9.190 -3.076
-23.580 -4.895 -19.151
-13.180 -8.796 -4.548
-7.723 -6.982 -1.102
-4.683 -8.067 3.399
-13.180 -8.795 -4.549
-23.633 -5.156 -18.930
-13.761 -9.916 -3.843
-21.994 -4.935 -17.529
-14.288 -9.751 -4.544
-12.668 -8.791 -4.027
-22.979 -4.895 -18.553
-13.033 -9.119 -4.262
-23.991 -6.277 -18.243
-13.010 -8.794 -4.376
-3.059 -6.846 3.753
-13.288 -9.899 -3.385
-13.186 -8.795 -4.556
-23.681 -4.885 -19.264
-7.846 -6.339 -1.500
-13.728 -9.888 -3.840
-21.996 -4.935 -17.530
-13.291 -9.898 -3.389
-12.273 -9.191 -3.085
-11.729 -9.611 -2.125
-4.549 -6.404 1.875
-14.283 -9.751 -4.538
-13.434 -10.014 -3.457
-23.683 -4.885 -19.267
-22.976 -4.895 -18.550
-11.837 -9.649 -2.196
-4.425 -7.552 3.108
-23.639 -5.155 -18.938
-5.570 -9.274 3.725
-12.661 -8.792 -4.019
-23.017 -5.124 -18.349
-23.017 -5.124 -18.349
-5.571 -9.274 3.725
-22.548 -4.922 -18.096
-25.620 -8.107 -17.665
-22.975 -4.895 -18.549
-21.623 -5.118 -17.128
-13.698 -10.089 -3.649
-21.398 -5.024 -16.453
-15.325 -8.283 -7.192
-19.504 -5.244 -14.348
-4.659 -6.424 1.784
-21.899 -5.038 -16.941
-5.959 -9.294 3.357
-21.897 -5.038 -16.938
-20.371 -5.010 -15.448
-20.371 -5.010 -15.448
-19.521 -5.246 -14.362
-12.166 -9.162 -3.006
-21.903 -5.038 -16.945
-2.987 -6.287 3.278
-20.808 -5.062 -16.384
-13.336 -9.001 -4.681
-19.597 -5.224 -14.469
-5.962 -9.294 3.354
-14.485 -9.646 -4.848
-2.971 -5.906 2.921
-13.328 -9.000 -4.674
-13.517 -8.805 -4.889
-20.594 -4.995 -15.685
-5.537 -9.272 3.757
-5.960 -9.294 3.356
-13.636 -9.024 -4.950
-4.459 -7.806 3.367
-13.343 -9.000 -4.690
-20.675 -5.020 -15.741
-5.962 -9.293 3.353
-21.631 -5.024 -16.686
-21.745 -5.053 -16.771
-14.489 -9.647 -4.852
-10.069 -6.862 -3.646
-13.708 -9.886 -3.822
-12.260 -8.687 -3.728
-18.534 -9.904 -8.625
-20.900 -5.005 -15.980
-20.208 -5.226 -15.068
-12.172 -9.160 -3.013
-20.387 -5.008 -15.466
-6.179 -8.372 2.216
-13.506 -10.053 -3.497
-13.216 -9.896 -3.314
-23.704 -7.346 -16.513
-23.428 -4.883 -19.014
-23.684 -5.150 -18.988
-22.575 -4.914 -18.128
-12.372 -9.063 -3.669
-18.873 -11.794 -7.089
-13.744 -9.887 -3.858
-23.969 -6.287 -18.210
-13.730 -8.641 -5.186
-5.574 -9.273 3.720
-13.771 -9.916 -3.853
-13.741 -9.887 -3.854
-12.794 -9.106 -4.038
-22.573 -4.915 -18.125
-13.272 -9.175 -4.201
-3.944 -8.654 4.728
-23.664 -5.152 -18.966
-13.737 -9.887 -3.850
-19.711 -5.024 -15.337
-12.844 -8.964 -4.239
-14.494 -9.646 -4.857
-13.506 -10.053 -3.497
-5.963 -9.293 3.352
-13.709 -9.886 -3.823
-21.146 -5.023 -16.203
-17.004 -11.787 -5.283
-18.330 -5.219 -13.194
-14.489 -9.646 -4.853
-5.963 -9.293 3.352
-6.181 -8.372 2.213
-4.462 -8.486 4.046
-14.491 -9.646 -4.854
-21.150 -5.021 -16.208
-5.963 -9.293 3.352
-16.761 -10.750 -6.302
-14.489 -9.646 -4.852
-5.737 -9.292 3.578
-12.560 -8.828 -4.098
-20.573 -5.050 -16.166
-4.345 -7.820 3.497
-14.489 -9.646 -4.852
-4.655 -6.423 1.787
-16.669 -9.917 -6.783
-13.512 -10.054 -3.502
-11.798 -8.828 -2.990
-19.555 -5.244 -14.398
-13.692 -9.890 -3.802
-13.526 -8.804 -4.899
-13.737 -9.916 -3.819
-21.919 -5.035 -16.963
-15.333 -8.283 -7.199
-19.098 -4.994 -14.749
-21.930 -5.034 -16.975
-12.171 -9.160 -3.014
-14.491 -9.647 -4.853
-12.176 -9.153 -3.025
-7.201 -8.805 1.623
-4.461 -7.805 3.365
-5.959 -9.294 3.357
-21.850 -5.041 -16.887
-20.682 -5.018 -15.749
-13.834 -9.641 -4.199
-13.741 -9.915 -3.823
-21.146 -5.022 -16.205
-17.011 -11.787 -5.290
-12.171 -9.160 -3.013
-16.785 -9.848 -6.967
-6.262 -9.275 3.035
-18.335 -5.219 -13.200
-13.721 -9.919 -3.800
-21.928 -5.034 -16.973
-19.613 -5.223 -14.486
-13.722 -9.919 -3.800
-19.539 -5.242 -14.384
-4.109 -7.562 3.434
-18.329 -5.219 -13.195
-20.588 -5.049 -16.181
-18.250 -11.501 -6.813
-12.177 -9.153 -3.026
-11.800 -8.828 -2.992
-11.800 -8.828 -2.992
-4.627 -7.803 3.197
-12.628 -9.964 -2.666
-13.742 -9.915 -3.824
-14.491 -9.647 -4.853
-24.160 -7.276 -17.022
-13.738 -9.887 -3.851
-18.742 -8.892 -9.917
-4.338 -7.821 3.505
-7.787 -6.969 -1.181
-4.453 -7.805 3.373
-24.569 -8.084 -16.641
-23.723 -4.880 -19.312
-4.943 -7.812 2.888
-13.723 -9.737 -3.989
-13.723 -9.737 -3.989
-11.762 -8.834 -2.947
-4.773 -7.827 3.075
-4.881 -6.455 1.592
-12.280 -9.191 -3.092
-4.178 -7.333 3.176
-24.025 -6.274 -18.281
-18.430 -9.885 -8.637
-22.393 -6.431 -16.490
-24.980 -6.286 -19.217
-22.858 -4.916 -18.412
-4.686 -8.055 3.384
-4.884 -8.203 3.339
-25.917 -7.759 -18.707
-4.332 -7.557 3.203
-4.549 -7.836 3.308
-13.444 -10.015 -3.466
-12.919 -9.650 -3.289
-23.747 -6.276 -18.001
-12.482 -9.966 -2.519
-13.723 -9.737 -3.989
-14.296 -9.751 -4.552
-23.723 -4.880 -19.312
-18.070 -9.197 -8.923
-24.026 -6.274 -18.282
-13.443 -10.015 -3.465
-10.020 -6.867 -3.592
-13.773 -9.915 -3.856
-4.859 -7.806 2.965