-19.383 -8.459 -10.918
-19.383 -8.459 -10.918
-18.970 -5.436 -13.518
-18.970 -5.436 -13.518
-19.910 -2.926 -17.039
-30.001 -6.565 -23.600
-18.844 -5.472 -13.357
-16.413 -5.904 -10.522
-18.675 -7.258 -11.521
-19.383 -8.459 -10.918
-18.841 -5.472 -13.354
-19.135 -7.294 -11.934
-19.383 -8.459 -10.918
-30.001 -6.565 -23.600
-18.959 -4.920 -14.042
-27.375 -4.634 -22.719
-30.001 -6.565 -23.600
-30.001 -6.565 -23.600
-30.001 -6.565 -23.600
-30.001 -6.565 -23.600
-18.959 -4.920 -14.042
-19.383 -8.459 -10.918
-30.001 -6.565 -23.600
-28.853 -5.665 -23.228
-18.959 -4.920 -14.042
-30.001 -6.565 -23.600
-27.375 -4.634 -22.719
-26.266 -4.899 -21.417
-27.375 -4.634 -22.719
-18.959 -4.920 -14.042
-30.001 -6.565 -23.600
-17.598 -5.738 -11.965
-30.004 -6.565 -23.604
-19.383 -8.459 -10.918
-30.001 -6.565 -23.600
-30.001 -6.565 -23.600
-26.580 -4.689 -21.868
-26.580 -4.689 -21.868
-19.712 -3.596 -16.177
-17.775 -8.428 -9.352
-30.005 -6.565 -23.604
-19.648 -7.768 -11.865
-30.004 -6.565 -23.604
-18.961 -4.920 -14.043
-19.383 -8.459 -10.918
-18.465 -5.789 -12.867
-18.959 -4.920 -14.042
-27.498 -5.656 -21.885
-26.270 -4.898 -21.421
-17.613 -5.700 -12.022
-29.673 -6.222 -23.608
-23.245 -4.674 -19.052
-30.006 -6.565 -23.605
-18.468 -5.789 -12.870
-17.000 -8.182 -8.840
-18.468 -5.789 -12.870
-18.961 -4.920 -14.043
-17.775 -8.428 -9.352
-29.512 -6.551 -23.127
-18.675 -7.258 -11.520
-19.944 -5.436 -14.494
-19.383 -8.459 -10.918
-5.441 -7.427 2.003
-18.970 -4.918 -14.054
-19.720 -3.592 -16.190
-28.966 -6.546 -22.583
-16.310 -6.095 -10.256
-18.476 -5.788 -12.880
-30.024 -6.564 -23.625
-30.024 -6.564 -23.625
-15.753 -8.177 -7.580
-18.983 -5.435 -13.532
-30.021 -6.564 -23.621
-18.474 -5.788 -12.878
-18.474 -5.788 -12.878
-18.971 -4.918 -14.055
-30.021 -6.564 -23.621
-19.391 -8.469 -10.915
-17.035 -7.613 -9.507
-18.475 -5.788 -12.879
-30.023 -6.564 -23.624
-18.983 -5.435 -13.532
-19.952 -5.434 -14.504
-19.659 -7.768 -11.875
-19.404 -8.462 -10.935
-19.720 -3.592 -16.190
-18.473 -5.788 -12.877
-18.473 -5.788 -12.877
-18.680 -7.257 -11.527
-19.720 -3.592 -16.190
-19.209 -7.247 -12.054
-30.014 -6.565 -23.613
-18.743 -7.746 -11.101
-18.978 -5.435 -13.527
-30.016 -6.564 -23.616
-19.659 -7.768 -11.875
-18.475 -5.788 -12.879
-19.721 -3.591 -16.191
-26.284 -4.896 -21.437
-30.023 -6.564 -23.624
-19.721 -3.591 -16.191
-14.111 -5.238 -9.167
-15.239 -2.104 -13.440
-18.531 -5.159 -13.430
-17.606 -5.737 -11.975
-28.869 -5.663 -23.247
-28.967 -6.546 -22.584
-19.391 -8.469 -10.915
-23.957 -4.612 -19.849
-27.390 -4.632 -22.735
-19.951 -5.434 -14.502
-18.970 -4.918 -14.054
-5.440 -7.429 2.006
-30.019 -6.564 -23.619
-18.907 -5.444 -13.448
-30.047 -6.561 -23.651
-16.945 -7.635 -9.410
-17.661 -5.694 -12.076
-17.771 -8.412 -9.355
-30.046 -6.561 -23.650
-27.415 -4.628 -22.765
-15.288 -2.095 -13.502
-19.969 -2.903 -17.121
-19.004 -5.432 -13.556
-18.500 -5.785 -12.906
-30.046 -6.561 -23.650
-19.237 -7.242 -12.085
-25.797 -4.978 -20.816
-19.435 -8.466 -10.960
-19.237 -7.242 -12.086
-19.237 -7.242 -12.086
-28.889 -5.661 -23.269
-19.976 -5.431 -14.530
-29.708 -6.219 -23.647
-18.560 -5.155 -13.462
-29.836 -6.547 -23.458
-23.984 -4.609 -19.879
-30.676 -6.454 -24.409
-19.764 -3.576 -16.250
-19.764 -3.576 -16.250
-17.568 -5.705 -11.971
-18.497 -5.785 -12.903
-16.323 0.914 -18.516
-18.999 -4.584 -14.431
-30.083 -6.558 -23.690
-20.098 -5.415 -14.668
-29.750 -6.215 -23.692
-18.605 -5.769 -13.026
-28.932 -5.656 -23.316
-18.605 -5.769 -13.026
-30.083 -6.558 -23.690
-19.134 -5.414 -13.704
-16.390 -6.080 -10.356
-28.498 -6.193 -22.462
-17.494 -8.348 -9.121
-18.609 -5.769 -13.031
-28.936 -5.656 -23.320
-17.684 -5.687 -12.103
-18.609 -5.769 -13.031
-18.609 -5.769 -13.031
-30.089 -6.557 -23.696
-19.958 -3.476 -16.542
-30.089 -6.557 -23.696
-19.253 -7.241 -12.103
-20.098 -5.415 -14.668
-18.727 -7.259 -11.573
-19.219 -4.858 -14.363
-30.083 -6.558 -23.690
-19.253 -7.241 -12.103
-15.612 -8.269 -7.321
-16.634 -8.464 -8.153
-27.449 -4.623 -22.804
-17.493 -8.349 -9.119
-17.493 -8.349 -9.119
-20.100 -5.415 -14.670
-17.501 -8.348 -9.128
-30.089 -6.557 -23.696
-17.506 -8.348 -9.132
-17.506 -8.348 -9.132
-30.089 -6.557 -23.696
-17.746 -5.714 -12.135
-18.610 -5.769 -13.032
-17.501 -8.348 -9.127
-17.501 -8.348 -9.127
-30.089 -6.557 -23.696
-20.100 -5.415 -14.670
-15.623 -8.268 -7.334
-30.089 -6.557 -23.696
-19.452 -8.465 -10.979
-16.115 -0.073 -17.290
-17.767 -5.676 -12.197
-29.615 -6.544 -23.237
-18.736 -7.259 -11.582
-19.004 -5.449 -13.539
-29.726 -6.545 -23.350
-17.496 -8.348 -9.123
-19.299 -4.562 -14.754
-27.454 -4.622 -22.810
-16.565 -5.878 -10.700
-18.612 -5.769 -13.034
-18.589 -5.144 -13.502
-17.771 -5.676 -12.202
-29.620 -6.543 -23.242
-19.254 -7.242 -12.103
-30.084 -6.558 -23.691
-24.001 -4.604 -19.902
-19.219 -4.858 -14.364
-19.303 -7.239 -12.155
-16.659 -5.873 -10.797
-28.817 -6.526 -22.458
-23.316 -4.663 -19.134
-29.621 -6.543 -23.243
-19.238 -7.286 -12.044
-19.723 -7.769 -11.939
-18.612 -5.769 -13.034
-29.620 -6.544 -23.242
-17.495 -8.348 -9.122
-19.222 -4.858 -14.367
-18.583 -5.197 -13.440
-17.747 -5.714 -12.136
-14.242 -5.196 -9.336
-15.643 -8.266 -7.356
-19.139 -5.414 -13.709
-30.095 -6.557 -23.703
-16.120 -0.074 -17.295
-19.139 -5.414 -13.709
-18.448 -5.790 -12.848
-19.166 -7.249 -12.009
-16.057 -0.301 -16.991
-23.866 -4.619 -19.752
-16.058 -0.292 -17.001
-17.559 -5.704 -11.960
-23.300 -4.668 -19.113
-18.712 -7.259 -11.557
-27.422 -4.627 -22.772
-18.904 -4.654 -14.267
-15.632 -0.646 -16.193
-16.139 -0.257 -17.122
-29.902 -6.542 -23.529
-18.512 -5.783 -12.920
-18.718 -7.259 -11.564
-17.234 -8.345 -8.864
-17.576 -5.703 -11.979
-29.691 -6.548 -23.312
-19.809 -2.980 -16.885
-29.588 -6.546 -23.207
-16.141 -0.259 -17.122
-29.729 -6.217 -23.669
-30.063 -6.560 -23.667
-17.474 -8.348 -9.100
-17.669 -5.692 -12.085
-17.474 -8.348 -9.100
-29.010 -6.542 -22.632
-29.010 -6.542 -22.632
-18.512 -5.783 -12.920
-28.797 -6.528 -22.437
-16.143 -0.259 -17.124
-16.143 -0.259 -17.124
-16.595 -5.882 -10.724
-27.067 -4.614 -22.430
-29.593 -6.546 -23.213
-28.793 -6.528 -22.433
-16.142 -0.259 -17.123
-23.350 -4.663 -19.168
-29.902 -6.542 -23.529
-17.473 -8.348 -9.100
-29.851 -6.546 -23.474
-30.062 -6.560 -23.667
-15.615 -8.270 -7.323
-28.796 -6.528 -22.436
-19.045 -4.907 -14.141
-28.570 -5.661 -22.951
-19.045 -4.907 -14.141
-18.512 -5.783 -12.920
-18.512 -5.783 -12.920
-7.304 -5.811 -1.463
-19.225 -7.286 -12.031
-16.927 -7.638 -9.390
-28.531 -6.527 -22.168
-14.875 -8.657 -6.204
-15.625 -8.269 -7.336
-19.452 -8.460 -10.985
-19.698 -3.042 -16.712
-17.469 -8.349 -9.094
-17.469 -8.349 -9.094
-29.851 -6.546 -23.474
-23.996 -4.607 -19.894
-17.457 -5.712 -11.861
-7.301 -5.811 -1.459
-29.588 -6.547 -23.206
-19.452 -8.460 -10.985
-23.867 -4.616 -19.755
-17.632 -5.729 -12.005
-17.658 -5.692 -12.073
-16.528 -5.871 -10.670
-16.486 -5.888 -10.611
-16.486 -5.888 -10.611
-16.583 -5.883 -10.710
-16.134 -0.256 -17.118
-19.696 -3.042 -16.710
-16.631 -8.467 -8.148
-19.014 -5.429 -13.568
-30.065 -6.560 -23.670
-30.065 -6.560 -23.670
-29.591 -6.546 -23.210
-16.344 0.932 -18.555
-16.377 -0.135 -17.483
-19.976 -3.466 -16.570
-29.856 -6.559 -23.462
-28.566 -6.523 -22.207
-30.103 -6.556 -23.712
-19.258 -7.241 -12.108
-15.868 -0.509 -16.571
-19.242 -7.285 -12.049
-17.272 -8.344 -8.903
-18.946 -5.423 -13.507
-30.097 -6.557 -23.705
-16.608 -5.885 -10.733
-15.139 -7.953 -7.162
-23.332 -4.662 -19.151
-29.891 -6.542 -23.517
-16.612 -5.885 -10.738
-29.884 -6.543 -23.510
-17.693 -5.686 -12.114
-24.024 -4.601 -19.927
-16.635 -8.466 -8.152
-17.682 -5.685 -12.101
-23.674 -5.111 -18.776
-28.611 -5.627 -23.023
-17.580 -5.695 -12.001
-28.611 -5.627 -23.023
-29.892 -6.542 -23.519
-19.044 -5.424 -13.603
-19.293 -7.238 -12.145
-29.885 -6.543 -23.511
-17.513 -8.347 -9.140
-29.884 -6.543 -23.510
-17.576 -5.696 -11.997
-29.886 -6.543 -23.513
-29.621 -6.543 -23.243
-28.954 -5.657 -23.339
-28.606 -5.627 -23.017
-23.789 -4.627 -19.663
-20.107 -5.413 -14.679
-19.248 -7.284 -12.056
-23.329 -4.662 -19.148
-29.888 -6.542 -23.514
-28.610 -5.658 -22.994
-17.693 -5.686 -12.113
-23.674 -5.111 -18.776
-24.024 -4.601 -19.927
-18.616 -5.768 -13.039
-7.376 -5.785 -1.560
-28.958 -5.656 -23.342
-18.944 -5.423 -13.505
-16.664 -8.463 -8.185
-29.626 -6.543 -23.249
-15.153 -7.953 -7.176
-30.101 -6.556 -23.709
-15.153 -7.953 -7.176
-28.610 -5.658 -22.994
-15.238 -7.966 -7.248
-30.101 -6.556 -23.710
-28.958 -5.656 -23.343
-30.101 -6.556 -23.710
-17.581 -5.695 -12.002
-17.581 -5.695 -12.002
-7.377 -5.785 -1.562
-29.627 -6.543 -23.249
-15.154 -7.953 -7.176
-29.627 -6.543 -23.249
-16.614 -5.860 -10.768
-29.627 -6.543 -23.249
-5.436 -7.430 2.011
-29.887 -6.542 -23.513
-24.019 -4.602 -19.921
-16.356 -0.142 -17.454
-16.078 -0.325 -16.978
-7.374 -5.785 -1.558
-29.892 -6.542 -23.519
-29.892 -6.542 -23.519
-29.892 -6.542 -23.519
-16.085 -0.329 -16.983
-28.873 -6.521 -22.521
-16.679 -5.874 -10.817
-17.752 -5.713 -12.142
-17.752 -5.713 -12.142
-19.049 -4.612 -14.452
-19.049 -4.612 -14.452
-16.085 -0.328 -16.982
-29.933 -6.539 -23.563
-29.625 -6.543 -23.247
-16.679 -5.874 -10.816
-16.363 -0.144 -17.458
-17.779 -5.675 -12.211
-29.890 -6.542 -23.517
-29.625 -6.543 -23.247
-19.225 -4.857 -14.371
-28.564 -6.523 -22.205
-15.154 -7.953 -7.177
-19.147 -5.412 -13.719
-19.147 -5.412 -13.719
-15.079 -7.881 -7.234
-28.565 -6.523 -22.206
-24.019 -4.602 -19.922
-23.891 -4.611 -19.784
-7.374 -5.785 -1.558
-29.627 -6.543 -23.250
-28.565 -6.523 -22.206
-29.888 -6.543 -23.514
-29.627 -6.543 -23.250
-16.679 -5.874 -10.817
-16.679 -5.874 -10.817
-16.059 -6.352 -9.721
-16.614 -5.860 -10.767
-29.882 -6.543 -23.508
-16.107 -0.304 -17.035
-16.424 -5.869 -10.568
-15.066 -7.881 -7.221
-29.626 -6.543 -23.248
-29.626 -6.543 -23.248
-15.152 -7.953 -7.175
-29.890 -6.542 -23.516
-29.626 -6.543 -23.248
-16.649 -8.464 -8.169
-28.565 -6.523 -22.206
-29.627 -6.543 -23.250
-7.415 -5.765 -1.619
-7.415 -5.765 -1.619
-19.227 -4.857 -14.373
-16.679 -5.874 -10.816
-16.363 -0.145 -17.458
-29.627 -6.543 -23.250
-7.377 -5.785 -1.561
-29.627 -6.543 -23.250
-16.679 -5.874 -10.817
-29.627 -6.543 -23.250
-16.363 -0.144 -17.459
-16.363 -0.144 -17.459
-30.102 -6.556 -23.710
-24.019 -4.602 -19.922
-29.887 -6.543 -23.514
-16.728 -8.460 -8.251
-29.627 -6.543 -23.250
-28.609 -5.627 -23.021
-16.363 -0.144 -17.459
-7.377 -5.785 -1.561
-19.044 -5.424 -13.603
-16.633 -8.455 -8.161
-29.888 -6.542 -23.514
-16.652 -8.463 -8.172
-29.726 -6.544 -23.349
-15.488 -8.274 -7.191
-29.781 -6.549 -23.400
-23.717 -4.637 -19.580
-29.517 -6.550 -23.132
-29.778 -6.549 -23.397
-16.501 -5.899 -10.612
-30.008 -6.564 -23.609
-16.099 -0.284 -17.053
-23.986 -4.609 -19.880
-29.515 -6.550 -23.131
-16.568 -5.887 -10.691
-16.503 -5.874 -10.642
-23.940 -4.613 -19.831
-29.773 -6.550 -23.392
-23.716 -4.637 -19.580
-15.010 -7.961 -7.024
-15.010 -7.961 -7.025
-16.558 -8.462 -8.078
-23.742 -4.635 -19.607
-30.028 -6.563 -23.629
-23.742 -4.635 -19.607
-23.968 -4.610 -19.862
-7.289 -5.814 -1.444
-16.558 -8.462 -8.079
-28.878 -5.662 -23.257
-18.670 -7.258 -11.516
-28.780 -6.529 -22.418
-28.780 -6.529 -22.418
-28.780 -6.529 -22.418
-16.339 -5.881 -10.470
-16.628 -8.465 -8.147
-16.595 -5.886 -10.720
-23.438 -5.125 -18.526
-30.690 -6.453 -24.424
-16.126 -0.270 -17.095
-28.917 -5.657 -23.300
-7.298 -5.813 -1.455
-29.618 -6.549 -23.239
-16.126 -0.270 -17.095
-29.597 -6.546 -23.217
-18.718 -7.258 -11.564
-28.535 -6.527 -22.173
-29.597 -6.546 -23.217
-17.476 -8.348 -9.102
-29.592 -6.546 -23.211
-16.631 -8.465 -8.150
-28.432 -5.634 -22.836
-29.592 -6.546 -23.211
-16.274 -5.885 -10.400
-15.844 -0.459 -16.607
-30.066 -6.560 -23.671
-29.853 -6.546 -23.476
-18.848 -4.667 -14.195
-16.405 -7.934 -8.453
-16.637 -8.464 -8.156
-15.111 -7.959 -7.128
-15.111 -7.959 -7.128
-24.000 -4.606 -19.898
-5.553 -7.432 1.896
-29.853 -6.546 -23.476
-5.434 -7.430 2.013
-16.595 -5.885 -10.721
-15.844 -0.459 -16.608
-15.747 -0.530 -16.432
-29.591 -6.546 -23.210
-16.706 -8.462 -8.228
-29.854 -6.546 -23.476
-15.844 -0.460 -16.607
-7.289 -5.817 -1.441
-15.747 -0.530 -16.432
-28.844 -6.524 -22.489
-16.686 -8.461 -8.208
-27.069 -4.615 -22.431
-15.112 -7.961 -7.127
-24.006 -4.606 -19.904
-12.808 -7.025 -5.795
-12.778 -7.045 -5.747
-16.616 -8.468 -8.132
-16.616 -8.468 -8.132
-15.056 -7.879 -7.212
-18.754 -4.688 -14.079
-23.775 -4.631 -19.645
-23.775 -4.631 -19.645
-16.265 -5.887 -10.390
-15.839 -0.456 -16.606
-16.595 -8.460 -8.117
-16.595 -8.460 -8.117
-16.616 -8.468 -8.132
-15.055 -7.879 -7.212
-5.435 -7.427 2.009
-15.839 -0.456 -16.606
-16.662 -8.465 -8.180
-15.104 -7.963 -7.117
-19.684 -3.049 -16.691
-7.287 -5.818 -1.438
-23.775 -4.631 -19.645
-15.026 -7.963 -7.040
-15.026 -7.963 -7.040
-5.436 -7.427 2.008
-15.742 -0.527 -16.431
-16.661 -8.465 -8.180
-16.595 -8.460 -8.117
-28.569 -5.659 -22.951
-14.995 -2.173 -13.110
-7.298 -5.813 -1.455
-16.647 -8.464 -8.167
-16.647 -8.464 -8.167
-16.276 -5.885 -10.403
-16.598 -5.885 -10.723
-5.557 -7.434 1.896
-18.812 -5.442 -13.354
-15.120 -7.960 -7.136
-16.645 -8.464 -8.165
-16.645 -8.464 -8.165
-15.846 -0.460 -16.609
-15.749 -0.531 -16.433
-7.298 -5.813 -1.455
-13.970 -5.240 -9.023
-29.597 -6.546 -23.217
-15.058 -7.882 -7.212
-28.917 -5.657 -23.300
-16.641 -8.464 -8.161
-15.095 -7.896 -7.233
-16.302 -7.939 -8.345
-15.749 -0.531 -16.434
-29.905 -6.542 -23.533
-6.681 -3.824 -2.917
-29.598 -6.546 -23.217
-15.121 -7.960 -7.138
-16.328 0.919 -18.525
-16.697 -8.460 -8.221
-16.697 -8.460 -8.221
-15.988 -0.399 -16.807
-29.632 -6.543 -23.255
-18.957 -4.633 -14.337
-16.447 -7.926 -8.503
-16.657 -8.463 -8.178
-16.657 -8.463 -8.178
-12.821 -7.052 -5.787
-16.652 -8.463 -8.172
-17.515 -5.704 -11.930
-16.423 -5.869 -10.566
-16.728 -8.460 -8.251
-15.103 -7.896 -7.241
-15.076 -7.953 -7.099
-16.357 -5.874 -10.496
-29.632 -6.543 -23.255
-17.269 -8.343 -8.902
-16.624 -8.456 -8.151
-15.986 -0.399 -16.806
-28.570 -6.523 -22.211
-15.077 -7.953 -7.100
-15.988 -0.399 -16.807
-5.443 -7.430 2.004
-11.382 -0.417 -10.980
-15.053 0.452 -15.599
-15.587 0.436 -16.108
-14.767 0.441 -15.301
-11.748 -7.629 -4.104
-11.162 -7.446 -3.694
-11.300 -5.657 -5.650
-11.162 -7.446 -3.694
-17.292 0.594 -18.240
-10.463 -6.599 -3.842
-11.809 -7.621 -4.174
-9.661 -5.351 -4.297
-16.252 0.465 -16.798
-15.326 0.407 -15.811
-11.812 -7.621 -4.177
-11.323 -7.467 -3.832
-2.370 -4.940 2.584
-14.823 0.418 -15.323
-14.823 0.418 -15.323
-12.183 -6.522 -5.713
-12.405 -6.532 -5.918
-14.079 -2.121 -11.990
-17.089 0.564 -18.006
-20.294 -1.703 -18.654
-11.562 -0.505 -11.065
-11.760 -6.800 -4.978
-2.855 -5.880 3.012
-15.684 -5.864 -9.824
-10.178 -6.781 -3.369
-3.231 -4.761 1.501
-11.500 -6.842 -4.698
-10.177 -6.781 -3.368
-1.688 -5.378 3.671
-11.407 -3.159 -8.278
-10.811 -7.592 -3.198
-10.811 -7.592 -3.198
-10.811 -7.592 -3.198
-11.088 -7.514 -3.550
-11.562 -6.780 -4.807
-3.254 -4.794 1.472
-11.342 -7.574 -3.752
-9.712 -5.365 -4.336
-3.254 -4.794 1.472
-11.089 -7.514 -3.551
-7.848 -4.644 -3.523
-11.342 -7.575 -3.751
-12.662 -0.258 -12.418
-11.028 -7.504 -3.503
-11.342 -7.575 -3.752
-12.412 -0.315 -12.109
-2.925 -5.870 2.915
-11.089 -7.514 -3.551
-10.841 -7.589 -3.232
-9.712 -5.365 -4.336
-11.088 -7.514 -3.551
-11.088 -7.514 -3.551
-14.734 -0.419 -15.560
-10.552 -0.660 -9.904
-15.195 0.088 -16.553
-16.253 0.466 -16.801
-15.710 0.447 -16.240
-16.254 0.466 -16.802
-14.805 0.416 -15.303
-11.797 -5.689 -6.116
-15.711 0.447 -16.241
-15.711 0.447 -16.241
-17.308 0.596 -18.258
-15.855 0.500 -16.445
-9.534 -5.625 -3.906
-11.313 -7.466 -3.823
-11.803 -7.621 -4.167
-2.600 -5.123 2.487
-10.644 -5.858 -4.782
-10.863 -0.580 -10.297
-9.726 -5.360 -4.354
-11.567 -6.780 -4.813
-11.101 -7.515 -3.562
-10.857 -6.960 -3.907
-18.169 -5.486 -12.668
-2.826 -5.818 2.970
-11.501 -6.843 -4.700
-3.199 -5.993 2.791
-11.350 -7.574 -3.760
-11.097 -7.514 -3.559
-11.097 -7.514 -3.559
-18.175 -5.485 -12.675
-11.407 -3.161 -8.276
-9.629 -5.644 -3.982
-16.210 0.021 -17.482
-16.210 0.021 -17.482
-11.349 -7.574 -3.759
-11.349 -7.574 -3.759
-3.200 -5.993 2.790
-10.179 -6.781 -3.368
-18.171 -5.486 -12.671
-11.097 -7.513 -3.560
-3.200 -5.993 2.790
-3.200 -5.993 2.790
-17.356 0.455 -17.891
-15.011 0.466 -15.567
-12.176 -6.523 -5.706
-17.296 0.591 -18.242
-9.669 -5.348 -4.308
-7.793 -7.051 -0.917
-15.297 0.400 -15.775
-9.545 -5.621 -3.921
-8.956 -9.033 0.071
-17.276 0.590 -18.221
-13.781 0.044 -13.906
-11.712 -7.597 -4.104
-11.323 -7.466 -3.832
-13.959 -2.175 -11.814
-16.244 0.462 -16.788
-17.366 0.456 -17.904
-14.625 -2.203 -12.454
-16.244 0.462 -16.788
-11.539 -2.004 -9.559
-11.539 -2.004 -9.559
-17.299 0.592 -18.246
-15.305 0.401 -15.785
-11.539 -2.004 -9.559
-15.305 0.401 -15.785
-16.537 0.474 -17.093
-10.460 -6.598 -3.841
-15.709 0.444 -16.236
-17.306 0.593 -18.253
-17.068 0.559 -17.980
-14.636 -2.201 -12.466
-16.147 0.456 -16.681
-13.971 -2.173 -11.827
-10.460 -6.598 -3.840
-13.971 -2.173 -11.827
-11.165 -7.445 -3.699
-2.954 -5.247 2.308
-13.836 0.050 -13.965
-15.792 -5.488 -10.299
-15.455 -6.204 -9.226
-9.668 -5.348 -4.307
-13.228 -6.044 -7.214
-8.532 -4.677 -4.178
-20.235 -1.757 -18.541
-20.042 -1.866 -18.238
-7.276 -5.947 -1.301
-3.299 -6.406 3.136
-11.533 -0.511 -11.029
-20.043 -1.867 -18.238
-11.569 -6.779 -4.816
-11.539 -0.511 -11.037
-7.277 -5.946 -1.302
-11.568 -6.779 -4.814
-11.540 -0.511 -11.037
-15.366 -5.930 -9.443
-15.637 -5.869 -9.773
-18.307 -5.081 -13.292
-11.745 -6.801 -4.963
-13.726 -0.071 -13.672
-16.125 0.454 -16.658
-14.611 -2.203 -12.439
-10.458 -6.598 -3.838
-15.722 0.479 -16.291
-12.180 -6.523 -5.710
-17.301 0.592 -18.248
-14.064 -2.127 -11.970
-17.376 0.457 -17.914
-15.313 0.401 -15.793
-16.811 0.603 -17.771
-15.122 -6.259 -8.837
-9.669 -5.348 -4.308
-10.265 -5.304 -4.950
-16.247 0.462 -16.791
-15.308 0.401 -15.787
-16.802 0.484 -17.370
-16.250 0.462 -16.794
-15.452 -6.204 -9.222
-9.846 -5.399 -4.441
-15.300 0.400 -15.779
-17.295 0.591 -18.242
-13.222 -6.044 -7.208
-15.171 0.086 -15.342
-19.503 -2.323 -17.245
-19.503 -2.323 -17.245
-16.137 0.455 -16.670
-11.711 -7.597 -4.103
-2.718 -6.300 3.608
-13.226 -6.044 -7.212
-17.348 0.455 -17.884
-15.291 0.400 -15.770
-3.353 -4.732 1.407
-13.820 0.048 -13.948
-17.353 0.455 -17.889
-14.055 -2.127 -11.960
-14.055 -2.127 -11.960
-7.792 -7.050 -0.917
-2.813 -5.785 2.952
-14.610 -2.205 -12.436
-16.789 0.482 -17.355
-13.811 0.046 -13.936
-15.304 0.400 -15.783
-9.668 -5.348 -4.307
-3.131 -5.970 2.836
-15.701 0.443 -16.227
-11.046 -2.950 -8.126
-17.295 0.591 -18.240
-3.276 -4.680 1.432
-13.220 -6.044 -7.206
-2.733 -6.308 3.602
-13.817 0.048 -13.945
-7.930 -6.832 -1.323
-14.054 -2.128 -11.959
-2.622 -4.678 2.079
-15.293 0.400 -15.771
-12.317 -1.983 -10.362
-9.669 -5.348 -4.308
-13.228 -6.044 -7.215
-13.376 0.031 -13.487
-10.288 -5.554 -4.733
-10.288 -5.554 -4.733
-15.702 0.443 -16.228
-15.702 0.443 -16.228
-14.630 -2.202 -12.459
-17.371 0.457 -17.908
-13.807 0.046 -13.933
-16.247 0.462 -16.792
-16.904 0.445 -17.433
-16.247 0.462 -16.792
-7.792 -7.050 -0.917
-12.479 -2.007 -10.498
-13.956 -2.176 -11.810
-15.702 0.443 -16.229
-13.071 -6.051 -7.050
-13.226 -6.044 -7.212
-3.136 -5.972 2.832
-15.711 0.478 -16.280
-11.038 -2.950 -8.118
-15.443 0.099 -15.627
-14.394 -7.997 -6.372
-13.379 0.031 -13.491
-17.362 0.456 -17.898
-16.532 0.473 -17.088
-9.611 -8.991 -0.646
-3.231 -4.785 1.583
-10.284 -5.554 -4.728
-3.129 -5.944 2.777
-13.086 -0.005 -13.161
-5.489 -8.087 2.623
-17.342 0.454 -17.878
-2.966 -5.248 2.296
-13.091 -0.004 -13.167
-11.812 -7.620 -4.177
-2.601 -5.122 2.485
-11.947 -2.354 -9.622
-15.702 0.443 -16.228
-12.938 0.040 -13.062
-13.962 -2.175 -11.817
-15.702 0.443 -16.229
-17.300 0.592 -18.247
-16.533 0.473 -17.089
-11.041 -2.950 -8.121
-12.313 -1.982 -10.358
-2.368 -4.942 2.588
-7.890 -6.958 -1.126
-3.442 -5.652 2.240
-14.260 -1.663 -13.123
-16.246 0.462 -16.790
-2.795 -5.548 2.784
-11.707 -7.596 -4.100
-15.036 -7.956 -7.053
-13.523 0.013 -13.616
-13.038 -6.055 -7.011
-15.701 0.443 -16.227
-11.323 -7.466 -3.832
-3.444 -5.651 2.239
-9.545 -5.621 -3.921
-7.357 -8.427 1.063
-11.816 -7.620 -4.181
-3.131 -5.971 2.835
-13.226 -6.044 -7.212
-15.435 0.101 -15.621
-12.085 -6.573 -5.565
-17.289 0.591 -18.234
-15.304 0.401 -15.783
-15.703 0.443 -16.230
-17.372 0.456 -17.909
-17.033 0.464 -17.577
-12.668 -2.781 -9.914
-13.350 0.028 -13.458
-13.962 -2.174 -11.817
-12.724 -2.740 -10.013
-11.079 -7.426 -3.625
-11.947 -2.354 -9.622
-3.442 -5.652 2.240
-12.942 0.040 -13.066
-12.942 0.040 -13.066
-12.678 -2.780 -9.925
-13.082 -0.005 -13.157
-3.440 -5.652 2.243
-12.399 -6.534 -5.910
-14.081 -1.700 -12.892
-16.604 0.464 -17.153
-16.883 0.448 -17.413
-14.109 -6.022 -8.145
-10.265 -5.561 -4.703
-16.104 0.450 -16.638
-16.104 0.450 -16.638
-13.078 -2.217 -10.891
-15.010 -7.959 -7.025
-2.597 -5.125 2.494
-12.481 -2.418 -10.094
-15.427 -8.253 -7.149
-17.179 0.582 -18.118
-3.140 -5.970 2.827
-11.365 -7.555 -3.793
-12.290 -6.556 -5.784
-13.902 -2.133 -11.801
-3.317 -5.622 2.337
-2.128 -5.643 3.540
-17.177 0.582 -18.115
-15.190 0.391 -15.661
-17.190 0.583 -18.129
-12.069 -6.545 -5.581
-2.594 -5.125 2.495
-12.601 -2.781 -9.846
-12.066 -6.546 -5.578
-13.806 -2.180 -11.654
-16.125 0.452 -16.661
-16.595 -5.448 -11.121
-15.855 -6.168 -9.665
-14.680 0.402 -15.167
-4.328 -4.127 -0.304
-10.244 -5.308 -4.924
-16.912 0.454 -17.448
-10.511 -7.606 -2.889
-0.764 -4.954 4.214
-11.751 -7.628 -4.109
-10.240 -5.310 -4.919
-14.879 -7.970 -6.882
-14.218 -1.677 -13.063
-10.258 -5.564 -4.693
-16.898 0.575 -17.831
-14.464 -2.212 -12.282
-14.949 -7.961 -6.962
-16.127 0.451 -16.662
-11.162 -7.444 -3.697
-16.084 -6.146 -9.915
-20.244 -1.750 -18.557
-19.810 -2.812 -17.054
-16.028 -5.882 -10.151
-3.856 -4.408 0.482
-11.693 -0.381 -11.330
-16.800 0.602 -17.760
-3.140 -5.943 2.766
-17.022 0.463 -17.566
-11.868 -2.860 -9.036
-14.601 -7.985 -6.592
-15.041 -7.955 -7.060
-8.760 -8.666 -0.081
-13.098 -0.002 -13.176
-12.693 -2.778 -9.942
-15.349 -8.247 -7.077
-3.442 -5.652 2.241
-12.492 -2.006 -10.512
-12.937 0.040 -13.062
-11.082 -7.426 -3.629
-12.093 -6.572 -5.574
-17.370 0.457 -17.908
-13.683 -2.213 -11.497
-16.540 0.475 -17.097
-7.917 -6.866 -1.268
-3.590 -5.676 2.117
-2.820 -5.864 3.011
-15.714 0.478 -16.282
-14.368 0.048 -14.497
-5.314 -8.066 2.776
-12.761 -2.738 -10.051
-17.348 0.455 -17.884
-16.532 0.474 -17.088
-14.723 -2.154 -12.602
-14.627 -2.203 -12.456
-17.298 0.592 -18.245
-9.606 -9.073 -0.546
-13.044 -0.008 -13.117
-17.282 0.591 -18.228
-17.282 0.591 -18.228
-15.212 -8.274 -6.914
-14.051 -2.128 -11.955
-14.051 -2.128 -11.955
-13.241 -2.208 -11.064
-6.559 -6.904 0.248
-14.061 -2.127 -11.966
-13.225 -6.044 -7.211
-13.752 0.074 -13.912
-9.547 -5.621 -3.922
-12.666 -1.995 -10.698
-16.320 -6.525 -9.770
-15.039 -7.956 -7.057
-14.059 -2.127 -11.964
-14.639 0.083 -14.806
-11.164 -7.444 -3.698
-12.074 -2.809 -9.294
-16.082 -6.147 -9.913
-14.596 -0.040 -14.645
-7.785 -7.062 -0.896
-7.895 -6.954 -1.138
-13.233 -6.043 -7.220
-12.667 -1.993 -10.702
-11.815 -7.620 -4.181
-9.260 -5.476 -3.774
-0.766 -4.369 3.627
-3.440 -5.652 2.243
-16.271 -7.897 -8.357
-17.293 0.593 -18.241
-15.441 -8.253 -7.163
-15.441 -8.253 -7.163
-3.124 -5.943 2.781
-7.797 -6.915 -1.073
-3.659 -4.740 1.091
-15.441 -8.253 -7.163
-15.175 0.088 -15.347
-16.139 0.457 -16.675
-13.194 -6.127 -7.093
-12.733 -2.738 -10.023
-15.307 0.403 -15.789
-15.222 -8.274 -6.924
-8.963 -9.046 0.077
-7.357 -8.430 1.066
-12.724 -2.247 -10.507
-13.366 0.032 -13.479
-7.922 -6.861 -1.279
-12.743 -2.738 -10.034
-14.928 0.099 -15.111
-17.047 0.467 -17.595
-17.047 0.467 -17.595
-14.642 -2.199 -12.474
-13.070 -0.004 -13.147
-15.048 -7.956 -7.065
-13.811 0.049 -13.940
-16.158 0.459 -16.695
-17.386 0.460 -17.927
-17.386 0.460 -17.927
-10.290 -5.553 -4.735
-3.277 -4.679 1.431
-3.247 -5.640 2.423
-3.422 -5.641 2.250
-17.307 0.595 -18.256
-15.718 0.447 -16.248
-11.958 -2.351 -9.636
-13.235 -6.043 -7.222
-13.235 -6.043 -7.222
-3.704 -5.695 2.023
-14.730 -2.152 -12.612
-14.730 -2.152 -12.612
-13.757 0.076 -13.919
-17.377 0.460 -17.918
-10.267 -5.304 -4.952
-2.230 -4.996 2.786
-3.032 -5.246 2.246
-10.879 -2.989 -7.920
-3.427 -5.640 2.245
-16.546 0.477 -17.105
-16.546 0.477 -17.105
-14.068 -2.124 -11.976
-14.641 -2.199 -12.473
-15.717 0.447 -16.247
-2.145 -5.646 3.525
-14.169 -2.206 -11.996
-2.825 -5.843 2.990
-19.319 -2.439 -16.945
-5.892 -6.530 0.378
-3.253 -4.792 1.471
-7.492 -5.843 -1.621
-15.518 -8.274 -7.222
-14.073 -5.215 -9.148
-3.253 -5.285 2.047
-16.438 1.034 -18.751
-10.328 -5.575 -4.753
-16.218 -5.910 -10.316
-3.686 -6.385 2.728
-18.978 -5.415 -13.547
-11.120 -0.541 -10.588
-3.550 -5.899 2.361
-3.550 -5.899 2.361
-10.328 -5.575 -4.753
-10.850 -7.589 -3.240
-18.617 -5.374 -13.229
-17.161 -5.727 -11.536
-14.979 -7.991 -6.965
-3.433 -4.706 1.285
-3.833 -6.369 2.564
-3.833 -6.369 2.564
-15.002 -7.954 -7.023
-3.375 -4.781 1.379
-10.922 -3.079 -7.871
-3.545 -5.899 2.366
-0.846 -4.940 4.119
-14.979 -7.991 -6.965
-16.286 -5.900 -10.395
-16.009 -5.867 -10.151
-7.406 -5.894 -1.485
-7.580 -5.769 -1.783
-11.100 -7.513 -3.563
-15.227 -8.301 -6.903
-7.580 -5.769 -1.783
-16.247 0.464 -16.793
-14.236 0.094 -14.414
-3.405 -4.777 1.401
-16.802 0.604 -17.764
-15.221 -8.274 -6.923
-3.018 -5.607 2.619
-3.386 -6.209 2.850
-16.797 0.485 -17.365
-13.768 0.076 -13.930
-13.768 0.076 -13.930
-14.056 -2.125 -11.963
-14.902 0.097 -15.082
-15.437 0.101 -15.623
-13.230 -6.043 -7.217
-13.300 -6.107 -7.221
-3.779 -6.213 2.461
-15.932 -0.176 -16.994
-7.232 -5.921 -1.280
-15.669 -0.320 -16.586
-16.195 0.778 -18.248
-7.582 -5.768 -1.785
-3.157 -5.985 2.822
-14.732 -8.009 -6.700
-7.704 -5.688 -1.987
-7.513 -5.827 -1.658
-7.132 -6.003 -1.102
-7.426 -5.779 -1.616
-0.842 -4.940 4.123
-18.825 -4.610 -14.233
-2.024 -4.742 2.692
-3.760 -6.405 2.672
-6.045 -6.508 0.182
-16.197 -5.913 -10.292
-6.045 -6.508 0.182
-15.604 -0.382 -16.455
-3.383 -5.671 2.314
-16.154 -0.027 -17.376
-3.294 -4.705 1.440
-15.863 -0.233 -16.866
-14.922 -0.943 -15.151
-11.443 -0.522 -10.929
-7.723 -5.678 -2.015
-14.963 -7.990 -6.948
-10.795 -7.579 -3.191
-3.067 -4.752 1.715
-10.847 -7.593 -3.234
-7.435 -5.773 -1.630
-15.659 -0.325 -16.569
-3.227 -5.827 2.612
-7.355 -5.848 -1.477
-2.582 -5.301 2.745
-19.752 -2.063 -17.753
-19.752 -2.063 -17.752
-3.398 -5.682 2.310
-3.275 -5.619 2.375
-10.250 -5.367 -4.879
-15.373 -8.287 -7.063
-7.438 -5.773 -1.634
-3.398 -5.682 2.311
-3.126 -5.689 2.594
-15.371 -8.273 -7.076
-19.761 -2.055 -17.769
-7.288 -5.921 -1.337
-3.836 -6.369 2.561
-3.314 -5.902 2.603
-15.875 0.697 -17.851
-16.646 -8.479 -8.150
-3.382 -5.899 2.530
-16.417 -5.892 -10.534
-3.400 -5.681 2.308
-10.608 -7.575 -3.018
-2.788 -5.547 2.791
-7.635 -5.758 -1.849
-2.036 -4.741 2.679
-3.416 -6.232 2.844
-7.737 -5.671 -2.037
-16.218 -5.910 -10.316
-7.644 -5.728 -1.887
-3.174 -6.498 3.351
-7.352 -5.849 -1.472
-17.904 -5.152 -12.823
-15.051 -7.980 -7.047
-15.938 -0.172 -17.004
-3.315 -5.902 2.601
-2.782 -6.348 3.594
-15.872 0.694 -17.845
-3.402 -6.030 2.655
-11.361 -7.574 -3.771
-3.193 -5.942 2.714
-15.136 -7.974 -7.137
-2.719 -6.186 3.487
-17.379 -5.698 -11.784
-14.977 -7.991 -6.962
-6.050 -6.507 0.176
-2.072 -5.284 3.224
-7.580 -5.769 -1.783
-19.554 -2.951 -16.660
-16.214 0.026 -17.491
-7.439 -5.773 -1.635
-7.699 -5.717 -1.954
-5.807 -7.674 1.888
-4.046 -5.905 1.876
-4.046 -5.905 1.876
-4.046 -5.905 1.876
-5.797 -7.672 1.897
-5.797 -7.672 1.897
-5.808 -7.674 1.888
-5.797 -7.672 1.897
-7.238 -7.174 -0.531
-4.064 -5.908 1.861
-4.065 -5.743 1.696
-3.133 -4.772 1.666
-4.065 -5.743 1.696
-4.046 -5.905 1.876
-4.046 -5.905 1.876
-6.418 -5.920 -0.548
-7.668 -5.924 -1.720
-4.064 -5.908 1.861
-4.046 -5.905 1.876
-4.064 -5.908 1.861
-4.064 -5.908 1.861
-4.046 -5.905 1.876
-6.418 -5.920 -0.548
-5.831 -7.659 1.851
-4.046 -5.905 1.876
-6.418 -5.920 -0.548
-5.831 -7.659 1.851
-6.420 -5.920 -0.550
-6.527 -5.949 -0.627
-5.831 -7.659 1.851
-5.831 -7.659 1.851
-4.064 -5.908 1.861
-6.526 -5.949 -0.625
-8.812 -8.163 -1.043
-4.046 -5.905 1.876
-4.131 -5.916 1.802
-6.418 -5.920 -0.549
-7.796 -5.917 -1.856
-7.796 -5.917 -1.856
-4.064 -5.908 1.861
-4.163 -5.749 1.604
-4.065 -5.743 1.696
-2.347 -5.474 3.152
-2.347 -5.474 3.152
-4.145 -5.750 1.623
-4.163 -5.749 1.604
-3.463 -4.760 1.328
-4.046 -5.905 1.876
-7.796 -5.917 -1.856
-7.238 -6.020 -1.209
-7.460 -6.021 -1.426
-7.460 -6.021 -1.426
-6.185 -5.953 -0.290
-6.433 -5.937 -0.555
-6.356 -5.951 -0.457
-2.333 -5.465 3.157
-6.724 -4.988 -2.111
-7.444 -6.021 -1.411
-5.996 -4.966 -1.349
-7.403 -6.021 -1.369
-2.332 -5.465 3.157
-5.996 -4.966 -1.349
-7.403 -6.022 -1.369
-3.144 -5.695 2.544
-4.124 -5.921 1.814
-3.144 -5.695 2.544
-7.619 -5.930 -1.665
-4.105 -5.917 1.829
-3.144 -5.695 2.544
-6.262 -5.951 -0.369
-7.618 -5.930 -1.665
-2.333 -5.465 3.157
-2.333 -5.465 3.157
-4.144 -5.750 1.626
-4.105 -5.917 1.829
-7.443 -6.021 -1.408
-5.996 -4.966 -1.349
-5.860 -7.673 1.838
-3.484 -4.766 1.314
-7.443 -6.021 -1.409
-4.105 -5.917 1.829
-4.028 -5.785 1.776
-7.618 -5.930 -1.664
-7.618 -5.930 -1.664
-2.332 -5.465 3.157
-4.020 -5.907 1.904
-3.484 -4.767 1.314
-6.867 -6.038 -0.823
-2.332 -5.465 3.157
-3.484 -4.766 1.314
-6.124 -5.972 -0.212
-4.111 -5.750 1.656
-3.143 -5.695 2.546
-4.111 -5.750 1.656
-3.139 -5.231 2.124
-3.139 -5.228 2.121
-7.442 -6.022 -1.408
-6.356 -5.951 -0.457
-6.356 -5.951 -0.457
-2.944 -5.578 2.667
-3.485 -4.767 1.313
-4.025 -5.786 1.780
-3.140 -5.229 2.122
-5.822 -7.660 1.860
-6.868 -6.038 -0.824
-4.106 -5.917 1.829
-4.019 -5.783 1.782
-4.130 -5.749 1.637
-6.665 -6.437 -0.309
-7.414 -6.712 -0.682
-4.124 -5.921 1.814
-4.105 -5.917 1.829
-6.434 -5.937 -0.555
-3.668 -5.349 1.711
-6.464 -5.967 -0.549
-7.443 -6.022 -1.408
-4.124 -5.921 1.814
-4.105 -5.917 1.829
-7.201 -7.155 -0.496
-3.299 -5.424 2.157
-5.812 -7.658 1.869
-4.111 -5.750 1.656
-3.143 -5.695 2.546
-3.143 -5.695 2.546
-3.143 -5.695 2.546
-4.130 -5.749 1.637
-7.619 -5.930 -1.665
-4.111 -5.750 1.656
-3.485 -4.767 1.313
-3.143 -5.695 2.546
-3.485 -4.767 1.313
-2.333 -5.465 3.157
-7.444 -6.021 -1.411
-3.140 -5.235 2.127
-3.670 -5.348 1.709
-2.333 -5.466 3.157
-7.090 -6.035 -1.046
-4.105 -5.917 1.829
-3.384 -5.352 1.995
-4.105 -5.917 1.829
-4.105 -5.917 1.829
-2.944 -5.578 2.666
-4.130 -5.749 1.637
-7.442 -6.022 -1.408
-2.333 -5.465 3.157
-4.130 -5.749 1.637
-4.105 -5.917 1.829
-3.529 -4.777 1.279
-4.038 -5.788 1.768
-4.173 -5.918 1.762
-4.175 -5.750 1.592
-3.528 -4.777 1.281
-6.456 -4.990 -1.822
-6.459 -5.911 -0.598
-4.153 -5.915 1.779