-9.478 -9.630 0.216
-13.234 -12.830 -0.359
-12.711 -12.806 -0.078
-9.754 -9.748 0.063
-9.474 -9.676 0.258
-9.532 -9.591 0.054
-9.487 -9.665 0.247
-13.001 -12.846 -0.106
-11.251 -10.893 -0.297
-9.754 -9.748 0.063
-9.391 -9.758 0.426
-11.236 -10.998 -0.151
-11.251 -10.893 -0.297
-12.179 -12.547 0.466
-13.001 -12.848 -0.106
-8.429 -8.806 0.434
-13.191 -13.813 0.631
-9.198 -10.151 0.818
-10.139 -10.617 0.576
-9.400 -9.301 -0.076
-13.013 -12.848 -0.117
-13.013 -12.848 -0.117
-12.820 -12.327 -0.553
-9.271 -9.787 0.608
-9.354 -9.632 0.336
-13.013 -12.852 -0.113
-11.259 -10.892 -0.307
-13.011 -12.851 -0.109
-12.718 -12.814 -0.081
-12.713 -12.819 -0.082
-13.013 -12.848 -0.117
-10.923 -10.649 -0.244
-9.382 -9.709 0.384
-10.811 -10.416 -0.360
-10.220 -10.587 0.217
-8.562 -8.592 0.083
-9.968 -10.863 0.998
-13.004 -12.809 -0.136
-9.402 -9.302 -0.078
-13.013 -12.848 -0.117
-12.718 -12.815 -0.082
-8.915 -10.355 1.440
-9.599 -9.819 0.290
-11.259 -10.891 -0.308
-13.013 -12.848 -0.117
-9.402 -9.302 -0.078
-12.718 -12.814 -0.082
-8.278 -10.205 1.962
-11.259 -10.892 -0.305
-11.253 -10.936 -0.248
-11.255 -10.884 -0.327
-8.676 -8.523 -0.101
-7.475 -8.925 1.494
-9.380 -9.719 0.404
-9.280 -9.435 -0.148
-9.401 -9.303 -0.076
-9.401 -9.303 -0.076
-9.598 -9.809 0.280
-9.331 -9.619 0.357
-11.259 -10.894 -0.304
-12.719 -12.816 -0.082
-11.252 -10.873 -0.331
-9.348 -9.664 0.386
-9.855 -9.689 -0.106
-13.011 -12.845 -0.117
-8.560 -8.576 0.075
-13.011 -12.849 -0.114
-9.968 -10.863 0.998
-11.739 -12.110 0.421
-11.240 -10.996 -0.151
-9.906 -10.918 1.023
-9.598 -9.813 0.285
-11.740 -12.084 0.411
-7.440 -9.036 1.650
-13.229 -13.852 0.634
-11.240 -10.993 -0.159
-9.589 -9.563 0.003
-9.967 -10.863 0.998
-13.206 -13.936 0.758
-9.865 -9.689 -0.108
-11.243 -10.984 -0.176
-9.968 -10.864 0.998
-9.968 -10.866 1.001
-11.259 -10.894 -0.304
-11.244 -10.959 -0.196
-9.865 -9.689 -0.107
-13.011 -12.849 -0.114
-13.026 -13.215 0.264
-11.242 -10.987 -0.169
-7.977 -9.927 1.913
-13.011 -12.855 -0.110
-13.011 -12.849 -0.112
-9.819 -9.679 -0.106
-9.853 -9.688 -0.103
-11.256 -10.863 -0.331
-13.011 -12.849 -0.114
-9.358 -9.652 0.351
-7.978 -9.929 1.911
-7.839 -9.686 1.798
-9.598 -9.816 0.287
-13.011 -12.849 -0.114
-8.894 -9.184 0.213
-9.882 -10.346 0.509
-8.895 -9.192 0.216
-8.627 -8.991 0.237
-10.735 -10.638 -0.108
-9.758 -9.622 -0.065
-9.841 -9.740 -0.113
-9.277 -9.277 0.053
-8.310 -8.808 0.535
-10.392 -10.458 0.090
-11.252 -10.903 -0.281
-9.704 -9.827 0.159
-9.229 -10.142 0.787
-9.865 -9.688 -0.109
-13.012 -12.849 -0.115
-9.968 -10.864 0.999
-11.259 -10.906 -0.290
-9.513 -9.989 0.474
-10.065 -10.065 0.059
-11.286 -10.750 -0.460
-9.404 -9.301 -0.082
-8.679 -8.519 -0.110
-8.302 -8.923 0.559
-9.865 -9.688 -0.109
-9.744 -9.616 -0.050
-14.173 -14.185 -0.153
-10.472 -10.445 0.002
-9.792 -9.695 -0.094
-14.166 -14.139 -0.168
-9.838 -9.706 -0.096
-11.260 -10.895 -0.304
-11.243 -10.981 -0.178
-11.260 -10.891 -0.308
-11.430 -11.409 -0.130
-9.968 -10.863 0.998
-9.232 -9.693 0.431
-7.962 -8.220 0.339
-10.148 -10.592 0.547
-10.472 -10.446 0.002
-8.016 -9.142 1.200
-12.720 -12.812 -0.084
-8.592 -8.978 0.418
-9.504 -9.957 0.492
-9.365 -9.703 0.399
-11.260 -10.890 -0.309
-11.245 -10.982 -0.177
-8.126 -8.715 0.550
-11.246 -10.965 -0.204
-7.795 -9.882 1.794
-8.160 -8.782 0.674
-10.473 -10.445 0.001
-13.230 -13.848 0.629
-9.552 -9.772 0.273
-9.400 -11.304 1.795
-11.244 -10.990 -0.171
-8.636 -8.723 0.093
-8.126 -8.716 0.551
-9.535 -9.903 0.425
-9.764 -9.610 -0.093
-9.506 -9.558 0.017
-9.757 -9.564 -0.094
-12.668 -12.607 -0.168
-10.023 -10.404 0.462
-8.178 -8.702 0.585
-11.244 -10.977 -0.185
-7.313 -8.364 1.140
-9.968 -10.864 0.998
-13.012 -12.849 -0.115
-10.473 -10.445 0.001
-9.750 -9.658 -0.015
-7.985 -9.963 1.940
-9.601 -9.798 0.267
-11.162 -11.913 0.770
-8.302 -8.922 0.558
-9.865 -9.691 -0.107
-9.602 -9.811 0.279
-9.763 -9.797 0.063
-9.865 -9.688 -0.109
-9.997 -10.039 0.093
-9.356 -9.304 -0.009
-9.761 -9.643 -0.055
-11.250 -10.946 -0.236
-10.515 -11.335 0.535
-11.250 -10.910 -0.277
-13.905 -14.718 0.903
-14.130 -14.812 0.587
-8.178 -8.705 0.589
-8.842 -9.073 0.221
-10.423 -10.479 0.041
-8.679 -8.521 -0.109
-8.657 -9.653 1.064
-11.255 -10.878 -0.312
-8.679 -9.712 1.102
-9.275 -10.864 1.289
-10.056 -10.633 0.661
-11.746 -12.114 0.433
-9.840 -9.644 -0.122
-12.717 -12.778 -0.097
-9.367 -9.747 0.416
-9.193 -9.142 0.044
-7.975 -9.914 1.910
-13.196 -12.815 -0.365
-11.233 -10.789 -0.383
-7.979 -9.945 1.928
-11.250 -10.893 -0.296
-7.869 -8.467 0.658
-9.920 -10.566 0.698
-7.842 -9.689 1.796
-9.761 -9.596 -0.093
-12.551 -12.601 0.091
-9.949 -10.866 1.020
-8.643 -10.157 1.603
-10.000 -10.651 0.687
-10.688 -11.828 1.211
-10.395 -10.467 0.093
-9.861 -9.700 -0.094
-9.735 -9.590 -0.067
-9.818 -9.650 -0.108
-12.731 -12.824 -0.086
-11.241 -10.989 -0.167
-9.843 -9.647 -0.127
-9.010 -10.467 1.307
-11.257 -10.913 -0.280
-7.974 -9.915 1.908
-8.065 -8.685 0.677
-9.968 -10.864 0.999
-9.671 -9.513 -0.069
-9.787 -9.667 -0.134
-9.299 -9.638 0.406
-7.979 -9.940 1.921
-9.778 -9.593 -0.124
-8.126 -8.716 0.551
-12.975 -12.861 -0.070
-10.472 -10.444 0.002
-11.254 -10.871 -0.321
-13.186 -13.639 0.447
-9.859 -9.682 -0.110
-9.227 -10.145 0.791
-9.981 -10.104 0.086
-9.755 -9.611 -0.060
-9.758 -9.619 -0.068
-10.438 -10.466 0.029
-11.259 -10.895 -0.303
-9.765 -9.617 -0.114
-9.864 -9.688 -0.107
-11.258 -10.896 -0.302
-9.233 -9.691 0.429
-8.671 -8.832 0.148
-8.543 -8.620 0.121
-9.245 -9.393 0.230
-9.751 -9.634 -0.046
-8.329 -8.772 0.484
-11.751 -12.080 0.388
-7.977 -9.920 1.906
-12.732 -12.836 -0.086
-9.857 -9.790 -0.016
-12.388 -12.060 -0.245
-12.194 -11.896 -0.217
-10.817 -10.494 -0.331
-10.735 -10.638 -0.107
-9.681 -10.697 0.978
-9.161 -12.067 2.921
-8.875 -9.197 0.243
-8.875 -9.200 0.243
-12.316 -12.023 -0.255
-7.972 -9.960 1.951
-9.949 -10.866 1.020
-9.745 -9.602 -0.062
-9.312 -9.668 0.416
-10.393 -10.458 0.090
-10.472 -10.446 0.003
-11.248 -10.963 -0.209
-9.776 -9.597 -0.120
-8.586 -8.937 0.250
-11.092 -11.044 -0.077
-9.968 -10.864 0.999
-12.726 -12.758 -0.103
-8.034 -9.854 1.812
-9.337 -9.234 -0.064
-8.300 -8.922 0.560
-7.311 -8.370 1.148
-9.601 -9.810 0.280
-10.472 -10.446 0.003
-9.395 -9.911 0.551
-11.257 -10.882 -0.319
-9.682 -9.610 0.032
-9.117 -12.150 3.037
-7.977 -9.926 1.906
-10.223 -10.378 0.228
-8.018 -9.149 1.200
-8.065 -9.635 1.686
-8.522 -9.148 0.319
-7.795 -9.880 1.786
-8.676 -8.521 -0.106
-9.687 -9.564 -0.063
-9.533 -11.093 1.468
-9.232 -9.692 0.430
-10.279 -10.208 -0.034
-12.356 -12.049 -0.217
-10.602 -11.916 1.329
-12.007 -11.830 -0.165
-8.325 -9.458 1.205
-7.474 -8.895 1.475
-8.882 -9.468 0.610
-8.006 -9.135 1.199
-10.517 -10.463 -0.061
-9.968 -10.864 0.999
-8.679 -9.711 1.102
-9.861 -9.811 -0.024
-12.732 -12.831 -0.086
-11.258 -10.896 -0.302
-10.509 -10.568 -0.079
-12.975 -12.861 -0.069
-11.256 -10.909 -0.285
-7.975 -9.907 1.886
-12.729 -12.851 -0.084
-11.668 -12.280 0.231
-7.795 -9.881 1.787
-8.066 -9.636 1.687
-9.831 -9.617 -0.153
-9.600 -9.813 0.283
-9.719 -9.566 -0.144
-13.146 -14.065 0.917
-7.479 -8.926 1.488
-11.236 -10.772 -0.412
-9.227 -10.147 0.791
-8.682 -9.430 0.555
-8.677 -8.521 -0.108
-8.693 -9.289 0.550
-12.732 -12.832 -0.086
-9.864 -9.688 -0.107
-8.177 -8.704 0.589
-8.123 -9.278 1.218
-9.108 -9.105 0.075
-10.517 -10.464 -0.061
-10.472 -10.445 0.003
-9.397 -9.532 0.200
-9.601 -9.811 0.281
-9.864 -9.688 -0.107
-9.232 -9.692 0.430
-9.917 -10.807 0.962
-9.968 -10.864 0.999
-9.779 -9.629 -0.113
-9.494 -11.097 1.523
-8.538 -9.892 1.255
-8.695 -8.572 -0.067
-11.243 -10.995 -0.163
-8.676 -9.486 0.544
-9.156 -12.076 2.937
-9.950 -10.839 0.956
-9.349 -9.326 -0.001
-9.380 -9.313 -0.043
-12.730 -12.853 -0.078
-12.966 -12.845 -0.066
-10.472 -10.445 0.002
-10.731 -10.754 0.092
-9.137 -12.128 2.985
-9.731 -9.559 -0.069
-9.764 -9.628 -0.060
-10.517 -10.463 -0.061
-8.177 -8.702 0.586
-8.563 -8.580 0.072
-6.732 -7.144 0.497
-8.039 -9.800 1.753
-9.381 -9.311 -0.047
-8.808 -10.443 1.461
-8.609 -9.052 0.266
-9.967 -10.860 0.996
-7.308 -8.354 1.129
-9.282 -9.639 0.408
-9.759 -9.609 -0.069
-9.133 -9.127 0.033
-9.864 -9.688 -0.107
-12.975 -12.864 -0.071
-8.177 -8.704 0.588
-10.489 -10.408 -0.112
-8.125 -8.716 0.552
-9.747 -9.661 -0.015
-8.690 -9.485 0.487
-9.850 -9.641 -0.139
-8.441 -10.159 1.825
-8.470 -9.519 0.860
-8.441 -10.159 1.825
-8.177 -8.703 0.588
-8.533 -8.556 0.091
-12.340 -12.353 0.071
-10.146 -10.662 0.604
-10.472 -10.445 0.002
-10.472 -10.445 0.002
-12.732 -12.849 -0.082
-8.679 -9.712 1.102
-9.968 -10.864 0.999
-9.831 -9.654 -0.107
-10.148 -10.613 0.567
-9.491 -9.919 0.449
-8.065 -8.684 0.677
-9.751 -9.626 -0.051
-8.589 -9.090 0.363
-11.473 -11.375 -0.155
-10.472 -10.444 0.001
-9.968 -10.863 0.999
-9.381 -9.310 -0.048
-8.677 -8.520 -0.107
-9.315 -9.686 0.434
-11.244 -10.986 -0.178
-7.978 -9.931 1.912
-9.968 -10.864 0.999
-8.789 -9.950 1.172
-8.125 -8.721 0.559
-9.340 -9.137 -0.172
-9.307 -9.676 0.431
-8.036 -9.759 1.717
-12.960 -12.862 -0.055
-8.853 -9.154 0.334
-9.774 -9.631 -0.105
-9.843 -9.702 -0.072
-9.756 -9.619 -0.064
-10.002 -10.484 0.507
-11.244 -10.925 -0.251
-11.227 -11.027 -0.104
-11.233 -10.985 -0.170
-11.230 -11.011 -0.134
-9.843 -9.702 -0.072
-8.055 -9.637 1.700
-8.853 -9.152 0.331
-10.203 -10.463 0.295
-8.882 -9.213 0.241
-9.491 -9.467 0.066
-8.027 -7.977 0.032
-8.679 -9.713 1.103
-8.673 -8.527 -0.095
-11.257 -10.876 -0.321
-11.253 -10.933 -0.245
-11.252 -10.897 -0.283
-9.230 -9.698 0.438
-9.597 -9.817 0.289
-10.518 -10.463 -0.061
-9.381 -9.311 -0.047
-11.240 -11.004 -0.158
-8.546 -8.628 0.128
-7.976 -9.918 1.893
-8.799 -8.808 -0.012
-11.244 -10.977 -0.190
-9.303 -9.684 0.447
-11.978 -11.720 -0.292
-12.731 -12.814 -0.093
-9.841 -9.619 -0.145
-8.677 -8.517 -0.109
-9.793 -9.686 -0.081
-10.472 -10.445 0.002
-10.472 -10.445 0.002
-8.732 -8.717 0.016
-8.001 -8.158 0.229
-8.677 -8.519 -0.107
-8.677 -8.519 -0.107
-9.314 -9.676 0.422
-9.288 -9.487 -0.065
-12.109 -12.686 0.517
-9.862 -9.686 -0.109
-12.524 -12.247 -0.259
-9.233 -9.692 0.429
-10.472 -10.445 0.002
-9.025 -9.517 0.163
-7.312 -8.365 1.143
-9.142 -12.129 3.003
-9.769 -9.635 -0.099
-8.677 -8.520 -0.107
-9.864 -9.687 -0.107
-7.795 -9.881 1.792
-12.375 -12.127 -0.203
-11.256 -10.910 -0.286
-7.312 -8.364 1.141
-12.732 -12.842 -0.082
-9.864 -9.688 -0.107
-11.735 -11.410 -0.396
-12.732 -12.826 -0.087
-6.940 -7.579 0.570
-8.198 -10.831 2.733
-9.348 -9.197 -0.082
-10.518 -10.463 -0.061
-9.233 -9.690 0.427
-9.256 -9.495 0.318
-9.956 -10.199 -0.167
-7.914 -9.065 1.160
-11.560 -11.363 -0.221
-8.472 -9.108 0.681
-8.878 -9.203 0.201
-12.732 -12.822 -0.086
-8.918 -8.746 -0.053
-8.473 -9.113 0.688
-9.197 -10.913 1.807
-12.714 -12.853 -0.078
-9.865 -11.579 1.691
-9.783 -10.153 0.413
-11.933 -11.787 -0.171
-8.394 -9.625 1.107
-8.563 -8.584 0.075
-7.974 -9.923 1.894
-11.244 -10.940 -0.228
-9.773 -9.661 -0.050
-8.563 -8.585 0.075
-8.153 -8.700 0.609
-8.677 -8.520 -0.106
-9.838 -9.750 -0.048
-8.016 -9.144 1.196
-12.732 -12.826 -0.089
-9.755 -9.641 -0.038
-9.009 -12.139 3.042
-9.766 -9.603 -0.092
-9.863 -10.336 0.503
-9.177 -9.294 0.188
-9.889 -9.840 -0.012
-9.766 -9.643 -0.054
-10.468 -10.452 0.014
-11.257 -10.886 -0.308
-8.585 -10.307 1.799
-8.677 -8.521 -0.105
-10.472 -10.446 0.003
-8.016 -9.884 1.858
-9.796 -9.658 -0.095
-8.700 -8.794 0.110
-8.782 -9.759 1.020
-9.274 -9.538 0.335
-11.258 -10.888 -0.311
-9.790 -9.662 -0.088
-12.279 -12.334 0.093
-9.841 -9.744 -0.068
-7.624 -8.935 1.227
-8.481 -8.531 0.102
-9.600 -9.811 0.281
-7.837 -8.134 0.348
-9.600 -9.809 0.279
-10.470 -10.445 0.004
-8.175 -8.703 0.589
-12.975 -12.863 -0.071
-12.446 -12.196 -0.191
-9.776 -9.678 -0.033
-12.362 -12.172 -0.264
-9.244 -9.400 0.238
-6.124 -5.972 -0.063
-9.762 -9.616 -0.074
-11.246 -10.972 -0.192
-10.472 -10.445 0.002
-9.492 -9.978 0.543
-7.477 -8.932 1.493
-10.472 -10.446 0.003
-8.676 -8.519 -0.108
-8.661 -8.616 -0.000
-8.676 -8.520 -0.105
-10.368 -10.452 0.079
-9.226 -10.113 0.782
-9.233 -9.692 0.429
-9.883 -9.855 -0.013
-8.278 -9.019 0.660
-10.472 -10.445 0.002
-12.975 -12.862 -0.069
-9.820 -9.689 -0.076
-9.527 -11.091 1.463
-7.444 -7.724 0.346
-9.968 -10.864 1.000
-10.472 -10.445 0.002
-7.479 -8.926 1.490
-9.968 -10.864 1.000
-9.748 -9.648 -0.091
-15.304 -15.038 -0.284
-14.906 -14.499 -0.331
-13.512 -15.642 1.248
-12.627 -13.533 0.913
-15.309 -15.042 -0.287
-14.906 -14.499 -0.331
-14.996 -14.052 -0.885
-15.309 -15.042 -0.287
-14.906 -14.499 -0.331
-12.897 -13.554 0.688
-14.906 -14.499 -0.331
-13.240 -13.541 0.415
-13.281 -11.913 -1.266
-12.572 -13.514 1.045
-14.999 -14.054 -0.887
-15.310 -15.043 -0.288
-12.897 -13.554 0.688
-13.247 -13.541 0.409
-12.897 -13.554 0.688
-15.304 -15.038 -0.285
-14.902 -14.500 -0.330
-14.996 -14.052 -0.887
-14.999 -14.059 -0.887
-12.897 -13.554 0.688
-14.999 -14.059 -0.886
-14.902 -14.500 -0.330
-14.999 -14.055 -0.887
-14.999 -14.053 -0.887
-14.042 -14.052 0.148
-14.042 -14.052 0.148
-14.999 -14.061 -0.885
-14.996 -14.054 -0.885
-14.042 -14.052 0.148
-12.595 -13.531 0.948
-12.851 -13.552 0.736
-15.126 -14.903 -0.127
-14.902 -14.500 -0.330
-14.999 -14.052 -0.890
-14.999 -14.053 -0.887
-14.994 -14.068 -0.881
-14.815 -14.497 -0.243
-13.512 -15.642 1.247
-14.649 -14.502 -0.049
-15.149 -14.901 -0.204
-13.525 -15.644 1.231
-14.412 -14.446 -0.120
-14.043 -14.052 0.148
-15.195 -15.031 -0.183
-13.107 -13.541 0.545
-14.998 -14.074 -0.877
-14.041 -14.039 0.136
-14.252 -14.733 0.594
-14.818 -14.485 -0.257
-12.841 -13.543 0.737
-14.998 -14.059 -0.885
-13.106 -13.540 0.545
-14.673 -14.501 -0.071
-14.996 -14.054 -0.885
-12.595 -13.531 0.947
-14.816 -14.497 -0.244
-12.440 -13.512 1.172
-14.667 -14.504 -0.067
-14.656 -14.501 -0.054
-14.817 -14.497 -0.244
-14.707 -14.125 -0.542
-13.512 -15.642 1.247
-14.812 -14.498 -0.244
-14.656 -14.502 -0.052
-14.816 -14.497 -0.243
-15.121 -14.903 -0.122
-12.444 -13.205 0.891
-14.673 -14.502 -0.069
-13.512 -15.642 1.247
-13.106 -13.542 0.546
-14.673 -14.502 -0.069
-15.121 -14.903 -0.122
-14.365 -14.712 0.465
-13.486 -15.648 1.261
-12.838 -13.552 0.749
-14.701 -14.124 -0.537
-13.486 -15.648 1.261
-14.655 -14.502 -0.052
-13.864 -14.814 1.023
-13.585 -14.744 1.266
-14.656 -14.502 -0.052
-13.850 -14.819 1.045
-12.440 -13.515 1.174
-13.113 -13.543 0.542
-14.696 -14.122 -0.533
-9.871 -9.678 -0.103
-14.667 -14.501 -0.067
-14.812 -14.498 -0.243
-14.996 -14.051 -0.886
-14.816 -14.496 -0.244
-14.996 -14.052 -0.886
-15.121 -14.903 -0.122
-14.655 -14.502 -0.052
-12.852 -13.553 0.736
-14.812 -14.498 -0.243
-12.595 -13.533 0.949
-14.718 -14.937 0.312
-14.624 -14.174 -0.453
-15.198 -15.035 -0.183
-14.810 -14.499 -0.240
-12.596 -13.526 0.945
-14.713 -14.937 0.318
-9.936 -9.673 -0.173
-12.441 -13.511 1.170
-14.655 -14.502 -0.052
-13.512 -15.642 1.247
-14.996 -14.052 -0.886
-14.802 -14.497 -0.235
-12.440 -13.512 1.174
-14.706 -14.132 -0.536
-14.710 -14.127 -0.545
-13.113 -13.541 0.540
-11.797 -11.808 0.265
-14.042 -14.052 0.148
-9.871 -9.676 -0.106
-14.811 -14.497 -0.243
-14.656 -14.501 -0.053
-14.816 -14.496 -0.245
-11.707 -13.005 1.001
-13.236 -11.914 -1.220
-14.710 -14.128 -0.543
-14.706 -14.124 -0.540
-14.634 -14.155 -0.461
-13.278 -11.912 -1.265
-13.849 -14.818 1.044
-14.808 -14.499 -0.237
-12.555 -13.533 0.988
-14.650 -14.929 0.376
-15.198 -15.034 -0.184
-14.706 -14.125 -0.540
-14.808 -14.499 -0.238
-13.258 -11.950 -1.203
-13.584 -15.631 1.185
-12.852 -13.552 0.735
-10.182 -9.983 -0.122
-14.668 -14.501 -0.068
-14.812 -14.497 -0.244
-14.812 -14.497 -0.244
-14.710 -14.128 -0.543
-14.615 -14.501 -0.035
-14.812 -14.497 -0.243
-14.615 -14.501 -0.036
-14.812 -14.497 -0.244
-14.656 -14.501 -0.054
-14.042 -14.052 0.148
-15.272 -15.032 -0.256
-14.812 -14.497 -0.244
-9.937 -9.671 -0.175
-12.035 -13.387 1.335
-12.439 -13.511 1.173
-14.707 -14.127 -0.540
-13.866 -14.053 0.325
-9.416 -9.655 0.313
-14.811 -14.497 -0.243
-14.042 -14.052 0.148
-14.042 -14.052 0.148
-14.806 -14.497 -0.234
-14.042 -14.052 0.148
-12.491 -13.554 1.106
-12.838 -13.551 0.749
-14.706 -14.131 -0.537
-14.806 -14.496 -0.237
-14.710 -14.130 -0.542
-14.656 -14.501 -0.053
-14.812 -14.497 -0.244
-15.200 -15.034 -0.186
-14.707 -14.125 -0.540
-14.812 -14.497 -0.245
-14.812 -14.497 -0.244
-12.853 -13.551 0.733
-14.812 -14.497 -0.244
-14.609 -14.923 0.419
-14.614 -14.494 -0.027
-14.706 -14.132 -0.537
-14.812 -14.497 -0.244
-14.051 -14.051 0.139
-14.643 -14.153 -0.479
-14.710 -14.127 -0.543
-12.440 -13.512 1.174
-14.707 -14.127 -0.539
-12.846 -13.555 0.756
-13.866 -14.054 0.325
-13.112 -13.541 0.541
-14.644 -14.153 -0.479
-13.373 -14.736 1.470
-12.596 -13.531 0.947
-14.645 -14.152 -0.480
-13.598 -15.632 1.168
-14.643 -14.152 -0.479
-14.805 -14.497 -0.232
-14.614 -14.501 -0.034
-14.656 -14.501 -0.053
-12.853 -13.551 0.733
-14.816 -14.496 -0.244
-9.937 -9.672 -0.174
-14.042 -14.052 0.148
-14.615 -14.501 -0.035
-12.985 -13.550 0.678
-12.852 -13.552 0.735
-13.113 -13.541 0.540
-14.706 -14.131 -0.537
-12.985 -13.550 0.678
-14.707 -14.127 -0.540
-14.702 -14.131 -0.533
-14.524 -14.147 -0.355
-14.615 -14.501 -0.036
-14.610 -14.502 -0.034
-14.615 -14.501 -0.035
-14.656 -14.501 -0.053
-13.371 -14.735 1.471
-14.812 -14.496 -0.245
-14.710 -14.128 -0.543
-13.849 -14.818 1.044
-9.871 -9.678 -0.104
-14.702 -14.130 -0.533
-15.277 -15.037 -0.258
-14.798 -14.499 -0.228
-12.595 -13.531 0.947
-14.706 -14.125 -0.540
-14.710 -14.128 -0.542
-14.710 -14.130 -0.541
-14.644 -14.152 -0.479
-12.985 -13.550 0.678
-14.608 -14.505 -0.023
-13.858 -14.054 0.333
-14.609 -14.922 0.418
-12.846 -13.558 0.753
-13.474 -15.645 1.276
-12.596 -13.531 0.947
-14.811 -14.497 -0.243
-14.643 -14.152 -0.479
-14.614 -14.501 -0.034
-14.805 -14.498 -0.229
-14.520 -14.138 -0.356
-14.706 -14.129 -0.539
-14.717 -14.936 0.313
-14.811 -14.498 -0.242
-13.259 -11.949 -1.206
-13.583 -15.631 1.186
-14.811 -14.497 -0.242
-13.866 -14.053 0.325
-12.616 -13.529 1.016
-14.710 -14.128 -0.543
-14.644 -14.152 -0.479
-14.614 -14.501 -0.034
-14.051 -14.051 0.139
-14.608 -14.502 -0.030
-14.614 -14.501 -0.034
-12.595 -13.531 0.947
-13.596 -15.633 1.169
-12.439 -13.513 1.175
-13.816 -14.441 0.752
-14.690 -14.945 0.349
-14.616 -14.489 -0.048
-14.695 -14.944 0.343
-14.690 -14.945 0.349
-14.658 -14.490 -0.066
-14.760 -14.154 -0.571
-14.594 -14.934 0.446
-9.873 -9.674 -0.109
-13.102 -13.523 0.532
-14.041 -14.039 0.136
-12.855 -13.544 0.725
-12.596 -13.523 0.939
-14.050 -14.038 0.127
-13.209 -11.900 -1.210
-9.932 -9.764 -0.103
-14.760 -14.154 -0.570
-13.978 -13.882 -0.215
-9.873 -9.675 -0.109
-14.804 -14.485 -0.247
-9.938 -9.671 -0.177
-14.615 -14.489 -0.046
-14.574 -14.162 -0.392
-14.692 -14.170 -0.510
-14.696 -14.945 0.342
-14.575 -14.159 -0.393
-13.229 -11.935 -1.193
-14.575 -14.160 -0.393
-12.490 -13.546 1.130
-9.873 -9.675 -0.108
-12.398 -13.511 1.159
-14.813 -14.486 -0.256
-14.571 -14.159 -0.389
-12.856 -13.543 0.722
-14.616 -14.490 -0.047
-9.938 -9.670 -0.177
-13.856 -14.040 0.322
-12.610 -13.513 1.007
-14.808 -14.485 -0.246
-14.247 -14.726 0.593
-13.865 -14.040 0.313
-12.610 -13.513 1.007
-14.575 -14.159 -0.394
-14.616 -14.489 -0.047
-14.633 -14.489 -0.065
-13.856 -14.040 0.321
-14.041 -14.039 0.136
-14.803 -14.486 -0.245
-14.760 -14.149 -0.572
-14.760 -14.152 -0.572
-14.813 -14.486 -0.255
-13.118 -14.192 1.185
-14.761 -14.149 -0.574
-14.818 -14.485 -0.256
-14.813 -14.486 -0.256
-12.856 -13.547 0.729
-14.687 -14.489 -0.094
-14.541 -14.386 -0.126
-12.434 -13.495 1.162
-13.108 -13.524 0.528
-13.866 -14.040 0.311
-14.814 -14.485 -0.258
-14.571 -14.158 -0.388
-14.814 -14.485 -0.258
-13.108 -13.524 0.528
-14.613 -14.490 -0.049
-13.290 -12.689 -0.503
-15.205 -15.027 -0.198
-9.776 -9.601 -0.127
-10.662 -10.447 -0.116
-11.116 -11.240 -0.084
-12.872 -12.101 -0.781
-10.767 -10.456 -0.265
-9.777 -9.607 -0.121
-9.843 -9.730 -0.178
-12.441 -13.061 0.707
-10.574 -10.181 -0.329
-12.873 -12.105 -0.777
-12.436 -13.032 0.699
-9.778 -9.590 -0.146
-10.573 -10.298 -0.245
-10.475 -10.172 -0.227
-9.874 -9.678 -0.273
-14.215 -14.251 -0.092
-12.813 -12.082 -0.760
-14.215 -14.251 -0.092
-10.550 -10.194 -0.330
-9.775 -9.621 -0.104
-11.303 -11.454 0.153
-12.818 -12.101 -0.752
-9.331 -9.622 0.336
-13.648 -13.740 0.150
-13.818 -13.903 0.158
-9.777 -9.599 -0.142
-13.614 -13.606 0.073
-10.335 -9.894 -0.356
-9.794 -9.578 -0.211
-9.775 -9.623 -0.095
-12.869 -12.085 -0.784
-9.864 -9.580 -0.237
-14.329 -14.734 0.462
-13.733 -13.855 0.216
-9.202 -9.521 0.336
-9.202 -9.521 0.336
-10.399 -9.975 -0.370
-12.869 -12.124 -0.756
-12.336 -12.670 0.189
-10.837 -10.616 -0.120
-9.800 -9.617 -0.231
-10.355 -9.898 -0.402
-9.782 -9.621 -0.110
-13.271 -13.773 0.348
-12.766 -12.797 0.019
-10.417 -9.897 -0.434
-9.803 -9.559 -0.254
-9.526 -9.956 0.356
-10.267 -10.484 0.163
-9.551 -10.137 0.669
-10.417 -9.897 -0.434
-10.669 -10.361 -0.258
-9.790 -9.599 -0.194
-10.341 -9.895 -0.361
-9.784 -9.604 -0.135
-9.800 -9.604 -0.219
-13.074 -13.594 0.559
-9.550 -10.134 0.667
-10.417 -9.897 -0.433
-11.235 -10.892 -0.317
-12.873 -12.100 -0.781
-12.848 -12.113 -0.754
-10.417 -9.897 -0.433
-12.234 -13.096 0.332
-9.996 -9.822 -0.257
-11.659 -11.581 -0.078
-13.192 -14.062 0.700
-14.237 -14.728 0.547
-10.734 -10.457 -0.173
-13.859 -14.191 0.330
-9.619 -9.959 0.272
-10.417 -9.897 -0.433
-9.261 -9.544 0.278
-9.619 -9.960 0.272
-9.619 -9.963 0.274
-9.786 -9.585 -0.172
-8.959 -7.956 -0.919
-9.263 -9.521 0.275
-9.201 -9.517 0.338
-13.655 -13.715 0.151
-9.904 -9.578 -0.306
-10.599 -10.275 -0.241
-9.202 -9.516 0.337
-9.263 -9.522 0.276
-10.440 -10.009 -0.388
-9.798 -10.094 0.292
-9.202 -9.516 0.336
-11.242 -11.631 0.263
-14.318 -14.951 0.637
-11.959 -11.627 -0.281
-10.787 -10.462 -0.221
-10.846 -10.639 -0.174
-8.857 -9.569 0.560
-12.453 -13.045 0.683
-10.340 -9.899 -0.360
-13.795 -14.502 0.463
-10.413 -9.892 -0.436
-9.259 -9.521 0.285
-13.861 -13.996 0.207
-10.340 -9.897 -0.358
-9.797 -9.580 -0.209
-9.618 -10.060 0.507
-13.597 -13.766 0.178
-8.279 -8.646 0.480
-9.262 -9.538 0.275
-9.785 -9.592 -0.189
-8.965 -7.955 -0.914
-9.872 -9.589 -0.256
-9.803 -9.721 -0.219
-9.633 -10.146 0.596
-9.263 -9.531 0.275
-9.751 -10.015 0.325
-12.466 -13.075 0.704
-10.417 -9.897 -0.434
-10.825 -11.040 0.227
-9.619 -9.960 0.271
-10.837 -10.673 -0.142
-12.807 -14.052 0.559
-12.462 -13.065 0.691
-9.783 -9.624 -0.116
-9.470 -9.562 0.191
-13.042 -13.782 0.810
-10.782 -10.595 -0.217
-10.094 -9.857 -0.249
-9.619 -9.970 0.278
-10.522 -10.153 -0.337
-10.668 -10.596 -0.018
-9.632 -10.146 0.598
-12.253 -12.976 0.060
-11.103 -11.175 -0.015
-9.979 -9.622 -0.304
-10.417 -9.898 -0.434
-10.608 -10.252 -0.295
-10.221 -10.104 -0.039
-11.876 -11.801 -0.124
-10.109 -10.733 0.604
-9.202 -9.518 0.335
-10.302 -9.902 -0.387
-12.864 -12.086 -0.783
-8.193 -7.544 -0.578
-10.415 -9.898 -0.431
-9.904 -9.467 -0.445
-9.615 -9.963 0.280
-11.411 -11.016 -0.421
-9.781 -9.589 -0.201
-9.468 -9.569 0.197
-9.194 -9.541 0.342
-10.339 -9.896 -0.356
-10.414 -9.903 -0.429
-12.810 -12.098 -0.711
-9.810 -9.635 -0.179
-9.867 -9.545 -0.316
-13.708 -14.271 0.170
-6.775 -7.647 0.962
-9.862 -9.589 -0.219
-10.340 -9.895 -0.360
-12.830 -12.025 -0.794
-6.970 -6.905 0.032
-8.123 -7.587 -0.448
-12.867 -12.069 -0.796
-13.691 -14.082 0.229
-10.415 -9.898 -0.432
-13.597 -14.102 0.308
-12.869 -12.114 -0.786
-9.615 -9.960 0.277
-9.259 -9.521 0.269
-9.200 -9.514 0.339
-12.858 -13.077 0.303
-7.110 -6.932 -0.091
-10.034 -9.703 -0.304
-12.832 -12.154 -0.697
-9.809 -9.552 -0.319
-13.141 -13.303 0.085
-9.467 -9.569 0.197
-10.286 -9.821 -0.410
-9.781 -9.595 -0.133
-14.252 -14.712 0.490
-12.780 -12.199 -0.567
-10.339 -9.896 -0.359
-10.414 -9.898 -0.430
-9.860 -9.595 -0.245
-13.002 -13.397 0.492
-13.091 -13.436 0.255
-9.200 -9.521 0.337
-10.415 -9.896 -0.432
-8.956 -7.967 -0.898
-9.548 -10.139 0.673
-9.615 -9.960 0.277
-12.074 -11.884 -0.123
-10.339 -9.894 -0.361
-12.518 -12.489 -0.090
-8.325 -8.789 0.567
-10.339 -9.892 -0.361
-8.123 -7.587 -0.448
-10.415 -9.898 -0.432
-11.486 -11.591 0.135
-12.834 -12.145 -0.700
-13.722 -14.193 0.134
-9.261 -9.535 0.276
-6.730 -6.847 0.222
-10.415 -9.898 -0.432
-10.985 -10.694 -0.206
-9.767 -9.571 -0.171
-12.786 -12.173 -0.593
-9.770 -10.051 0.345
-9.257 -9.568 0.277
-9.259 -9.506 0.281
-9.531 -10.136 0.687
-9.867 -9.854 -0.162
-13.001 -13.245 0.336
-9.616 -9.959 0.277
-9.616 -9.961 0.277
-8.960 -7.990 -0.888
-12.706 -12.250 -0.508
-9.671 -10.061 0.438
-10.339 -9.895 -0.360
-9.467 -9.557 0.193
-10.415 -9.898 -0.431
-9.261 -9.540 0.276
-10.415 -9.898 -0.430
-9.615 -9.962 0.278
-10.021 -9.937 -0.059
-11.412 -11.410 0.057
-8.192 -7.540 -0.580
-13.905 -14.106 0.259
-10.415 -9.893 -0.430
-9.876 -9.595 -0.273
-9.540 -9.960 0.349
-14.261 -14.604 0.371
-7.113 -6.932 -0.094
-9.615 -9.961 0.277
-10.338 -9.890 -0.363
-9.616 -9.963 0.280
-10.339 -9.900 -0.352
-13.151 -13.474 0.416
-10.416 -9.898 -0.432
-9.630 -10.140 0.593
-12.191 -12.237 -0.034
-10.982 -10.713 -0.242
-9.540 -9.958 0.346
-10.338 -9.898 -0.357
-9.816 -9.587 -0.269
-9.200 -9.516 0.337
-9.255 -9.552 0.281
-10.045 -9.733 -0.348
-10.782 -10.534 -0.171
-8.192 -7.538 -0.584
-10.374 -10.068 -0.345
-10.338 -9.900 -0.350
-10.414 -9.901 -0.429
-9.200 -9.518 0.338
-9.261 -9.526 0.278
-9.261 -9.528 0.277
-8.192 -7.541 -0.581
-10.123 -9.732 -0.374
-10.982 -10.698 -0.215
-9.876 -9.597 -0.278
-8.958 -7.972 -0.898
-9.430 -9.791 0.410
-9.261 -9.518 0.278
-9.199 -9.503 0.340
-10.415 -9.898 -0.431
-11.024 -10.722 -0.237
-9.515 -9.985 0.410
-8.193 -7.540 -0.580
-14.204 -14.607 0.450
-12.564 -12.797 0.079
-9.451 -9.572 0.214
-9.183 -9.508 0.353
-8.193 -7.542 -0.581
-7.449 -7.231 -0.215
-8.190 -7.544 -0.577
-12.677 -13.379 0.157
-10.840 -10.962 0.034
-9.523 -9.914 0.429
-10.805 -11.860 0.966
-10.108 -10.418 0.387
-9.606 -9.811 0.275
-10.348 -10.574 0.148
-9.454 -9.613 0.239
-10.811 -12.012 1.070
-9.867 -9.687 -0.111
-10.027 -10.416 0.468
-10.499 -10.577 -0.123
-10.108 -10.418 0.387
-9.867 -9.688 -0.111
-10.028 -10.406 0.459
-10.027 -10.392 0.448
-9.798 -10.114 0.412
-9.892 -9.689 -0.135
-9.247 -9.688 0.411
-10.479 -10.443 -0.007
-9.601 -9.796 0.262
-10.029 -10.402 0.455
-10.029 -10.403 0.455
-9.867 -9.687 -0.111
-10.025 -10.423 0.469
-10.028 -10.404 0.458
-9.867 -9.687 -0.111
-10.029 -10.403 0.455
-10.029 -10.401 0.454
-10.499 -10.578 -0.139
-10.029 -10.403 0.455
-9.867 -9.687 -0.111
-10.029 -10.403 0.455
-10.812 -12.012 1.069
-9.867 -9.687 -0.111
-12.716 -13.150 -0.097
-9.867 -9.688 -0.110
-10.478 -10.443 -0.006
-12.193 -11.868 -0.248
-9.795 -10.083 0.335
-9.299 -9.687 0.433
-10.478 -10.562 -0.178
-9.927 -10.075 0.214
-10.438 -10.478 0.027
-10.479 -10.444 -0.006
-12.171 -11.964 -0.163
-10.486 -10.579 -0.122
-9.256 -10.108 0.927
-9.607 -9.811 0.274
-10.440 -10.476 0.022
-9.506 -9.621 0.192
-10.333 -10.343 0.031
-7.932 -8.133 0.189
-13.550 -12.003 -1.496
-10.487 -10.573 -0.125
-10.032 -10.409 0.457
-9.927 -10.075 0.214
-10.491 -10.645 0.170
-10.491 -10.645 0.170
-9.530 -10.052 0.565
-9.517 -9.996 0.531
-10.121 -10.435 0.355
-9.707 -10.227 0.506
-9.869 -9.687 -0.114
-9.869 -9.687 -0.114
-9.867 -9.678 -0.160
-9.802 -10.109 0.380
-10.476 -10.579 -0.109
-10.475 -10.445 -0.001
-10.029 -10.402 0.451
-10.502 -10.576 -0.139
-12.076 -11.981 -0.046
-12.562 -12.422 -0.015
-10.025 -10.409 0.463
-9.865 -9.688 -0.109
-9.865 -9.688 -0.109
-10.750 -12.026 1.153
-9.490 -10.049 0.611
-9.619 -9.635 0.091
-9.863 -9.688 -0.105
-9.863 -9.689 -0.105
-9.866 -9.805 -0.007
-9.760 -9.754 0.063
-10.412 -10.454 0.067
-9.697 -10.226 0.515
-10.480 -10.443 -0.008
-10.480 -10.443 -0.008
-10.025 -10.400 0.458
-9.602 -9.812 0.279
-12.200 -11.964 -0.211
-10.345 -10.347 0.020
-9.398 -9.908 0.545
-9.400 -9.308 -0.073
-7.930 -8.126 0.186
-8.875 -9.209 0.252
-10.949 -11.993 0.888
-10.030 -10.402 0.453
-9.400 -9.907 0.542
-9.503 -10.031 0.580
-10.024 -10.432 0.485
-8.898 -9.180 0.207
-8.579 -8.524 -0.059
-10.515 -10.575 -0.158
-12.321 -11.785 -0.456
-10.490 -10.645 0.172
-9.899 -10.509 0.694
-10.516 -10.385 -0.071
-9.894 -9.689 -0.137
-8.896 -9.218 0.231
-8.576 -8.543 -0.034
-9.867 -9.688 -0.111
-9.867 -9.688 -0.111
-8.957 -9.056 0.189
-9.722 -10.244 0.511
-9.867 -9.688 -0.111
-8.897 -9.191 0.213
-9.867 -9.688 -0.111
-9.043 -9.489 0.487
-13.126 -12.212 -0.861
-10.947 -11.993 0.890
-12.633 -12.428 -0.076
-9.656 -10.192 0.545
-10.754 -10.633 -0.131
-12.614 -13.234 0.686
-10.419 -10.451 0.057
-10.489 -10.440 -0.020
-8.906 -9.177 0.196
-10.252 -10.488 0.312
-10.239 -10.350 0.126
-12.765 -12.386 -0.240
-12.174 -11.957 -0.172
-10.237 -10.362 0.133
-8.906 -9.176 0.196
-12.765 -12.386 -0.240
-10.506 -10.572 -0.139
-9.406 -9.903 0.530
-9.882 -9.682 -0.131
-10.950 -11.993 0.888
-9.880 -9.678 -0.131
-12.716 -13.133 -0.131
-12.715 -13.093 -0.144
-10.526 -10.385 -0.074
-10.419 -10.451 0.057
-7.331 -6.873 -0.410
-8.066 -8.684 0.676
-9.602 -9.785 0.252
-10.488 -10.439 -0.020
-10.287 -12.366 2.162
-10.488 -10.439 -0.020
-9.272 -10.103 0.907
-9.840 -9.665 -0.118
-12.294 -11.882 -0.446
-10.197 -10.485 0.289
-9.901 -10.472 0.657
-12.318 -11.845 -0.439
-9.658 -10.716 1.062
-7.798 -9.877 1.742
-9.367 -10.353 1.038
-10.106 -10.391 0.081
-9.430 -9.617 0.265
-10.337 -10.346 0.027
-9.604 -9.806 0.272
-8.126 -7.996 -0.096
-10.250 -10.348 0.115
-10.250 -10.348 0.114
-13.554 -12.002 -1.500
-10.042 -10.397 0.436
-12.643 -12.723 -0.372
-9.236 -10.095 0.814
-8.044 -9.796 1.738
-12.759 -13.088 -0.252
-10.488 -10.582 -0.119
-10.039 -10.396 0.437
-10.129 -10.734 0.653
-8.066 -8.682 0.672
-9.440 -9.613 0.252
-10.469 -10.594 -0.052
-8.906 -9.183 0.200
-14.331 -14.858 0.378
-14.361 -14.293 -0.242
-13.934 -14.721 0.865
-13.933 -14.727 0.868
-14.361 -14.293 -0.242
-13.118 -13.895 0.749
-13.934 -14.721 0.865
-13.934 -14.719 0.865
-13.118 -13.910 0.760
-13.249 -12.839 -0.370
-14.732 -15.125 0.474
-13.055 -13.440 0.282
-14.353 -14.746 0.444
-14.331 -14.858 0.377
-14.732 -15.125 0.474
-14.331 -14.854 0.373
-14.732 -15.125 0.474
-14.361 -14.293 -0.242
-13.363 -14.636 1.121
-14.331 -14.855 0.373
-13.118 -13.917 0.770
-13.925 -14.688 0.864
-14.361 -14.293 -0.242
-14.331 -14.855 0.374
-14.107 -14.825 0.737
-14.331 -14.850 0.369
-14.732 -15.125 0.474
-13.363 -14.636 1.121
-14.732 -15.125 0.474
-14.697 -15.124 0.507
-14.331 -14.854 0.374
-12.836 -12.428 -0.483
-14.331 -14.854 0.373
-13.934 -14.719 0.865
-14.732 -15.125 0.474
-14.731 -15.132 0.478
-12.835 -12.446 -0.456
-14.392 -14.975 0.604
-14.331 -14.854 0.373
-13.363 -14.636 1.121
-14.360 -14.302 -0.251
-14.032 -14.737 0.739
-14.361 -14.293 -0.242
-11.419 -12.224 0.826