-9.058 -10.154 0.774
-9.105 -10.249 0.925
-7.025 -7.147 0.053
-9.058 -10.154 0.774
-9.769 -10.427 0.582
-8.150 -8.744 0.443
-8.556 -9.188 0.304
-8.162 -7.980 -0.250
-9.072 -10.153 0.756
-8.574 -8.663 0.012
-8.574 -8.663 0.012
-8.574 -8.665 0.015
-8.123 -8.737 0.463
-8.123 -8.737 0.463
-7.170 -7.118 -0.070
-8.803 -9.320 0.426
-8.162 -7.979 -0.250
-8.123 -8.737 0.463
-8.489 -9.881 1.058
-8.162 -7.980 -0.250
-9.072 -10.153 0.758
-8.574 -8.663 0.012
-9.072 -10.153 0.756
-9.334 -9.959 0.563
-8.021 -8.923 0.844
-9.072 -10.153 0.756
-7.992 -9.064 0.147
-9.114 -10.247 0.913
-9.782 -10.450 0.593
-8.489 -9.881 1.059
-9.505 -10.225 0.647
-9.072 -10.152 0.755
-9.072 -10.153 0.756
-9.114 -10.247 0.913
-8.568 -8.653 0.012
-9.081 -9.482 0.240
-8.162 -7.980 -0.250
-7.075 -7.119 -0.048
-9.072 -10.153 0.756
-9.090 -10.150 0.734
-7.236 -7.287 -0.044
-9.773 -10.423 0.570
-8.574 -8.663 0.012
-9.121 -10.243 0.903
-9.781 -10.466 0.607
-8.376 -9.409 0.939
-6.941 -7.092 0.069
-7.388 -7.335 -0.083
-9.780 -10.438 0.584
-8.495 -9.875 1.048
-9.121 -10.243 0.903
-7.275 -7.423 0.071
-8.556 -9.187 0.305
-9.071 -10.143 0.745
-8.218 -9.055 0.322
-7.154 -7.191 -0.008
-7.778 -8.694 0.675
-9.456 -10.187 0.618
-8.545 -9.748 1.113
-8.500 -8.822 0.211
-9.072 -10.150 0.751
-7.363 -7.515 0.086
-9.771 -10.411 0.566
-9.072 -10.150 0.751
-9.858 -9.614 -0.469
-7.914 -8.179 -0.127
-9.781 -10.448 0.591
-9.567 -10.408 0.730
-9.020 -8.656 -0.489
-7.806 -9.312 1.485
-7.971 -8.252 0.204
-13.201 -11.861 -1.540
-10.287 -8.681 -2.319
-9.072 -10.150 0.751
-7.264 -7.275 -0.085
-8.215 -9.072 0.364
-8.881 -8.620 -0.390
-7.454 -8.128 0.579
-7.274 -7.426 0.073
-8.574 -8.663 0.012
-9.781 -10.445 0.588
-9.020 -8.655 -0.490
-6.986 -7.231 0.177
-6.214 -7.900 1.608
-9.883 -9.510 -0.591
-7.078 -7.201 0.058
-8.124 -8.737 0.463
-8.575 -8.833 0.206
-9.739 -10.415 0.617
-7.614 -7.534 -0.124
-6.160 -7.992 1.753
-9.072 -10.150 0.751
-10.965 -11.104 0.067
-9.121 -10.243 0.903
-7.877 -9.678 1.782
-8.743 -9.234 0.352
-8.574 -8.663 0.012
-9.561 -10.252 0.580
-6.870 -7.468 0.536
-8.574 -8.665 0.014
-9.020 -8.659 -0.489
-9.781 -10.447 0.592
-8.949 -10.059 1.022
-6.986 -7.231 0.177
-9.713 -10.352 0.552
-9.885 -9.477 -0.604
-7.809 -9.307 1.476
-9.121 -10.243 0.903
-12.687 -11.015 -1.809
-8.574 -8.663 0.012
-9.761 -10.398 0.567
-9.513 -10.077 0.460
-9.072 -10.150 0.751
-10.851 -10.844 -0.064
-8.949 -10.040 1.006
-9.757 -10.423 0.583
-8.566 -8.920 0.287
-9.766 -10.409 0.561
-9.020 -8.656 -0.489
-8.574 -8.662 0.012
-7.596 -7.716 -0.057
-7.190 -7.168 -0.056
-9.749 -10.374 0.546
-8.162 -7.979 -0.250
-8.913 -10.017 1.009
-9.057 -9.699 0.532
-7.914 -8.181 -0.125
-8.949 -10.048 1.012
-10.287 -8.681 -2.306
-9.687 -10.291 0.532
-9.072 -10.150 0.751
-11.674 -11.672 -0.088
-7.877 -9.678 1.782
-8.949 -10.040 1.004
-7.993 -9.067 0.150
-9.637 -10.230 0.520
-8.602 -8.835 0.167
-6.870 -7.472 0.540
-13.201 -11.867 -1.537
-8.674 -8.606 -0.087
-9.614 -10.299 0.626
-6.986 -7.231 0.177
-9.737 -10.405 0.586
-9.528 -9.813 0.100
-7.363 -7.515 0.086
-8.949 -10.046 1.010
-8.596 -8.891 0.249
-7.363 -7.515 0.086
-9.375 -9.827 0.378
-9.121 -10.243 0.903
-9.774 -10.433 0.583
-8.573 -8.671 0.018
-8.416 -9.221 0.607
-8.545 -9.748 1.113
-7.179 -7.165 -0.068
-9.779 -10.433 0.578
-9.655 -10.354 0.616
-7.204 -7.166 -0.088
-9.733 -10.430 0.612
-9.779 -10.435 0.584
-8.949 -10.052 1.016
-9.065 -10.148 0.744
-9.779 -10.427 0.571
-9.237 -9.927 0.569
-7.971 -8.252 0.204
-8.949 -10.058 1.021
-8.631 -8.939 0.228
-7.765 -8.450 0.627
-9.020 -8.656 -0.489
-10.669 -11.340 0.590
-6.986 -7.231 0.177
-10.286 -8.685 -2.296
-7.363 -7.515 0.086
-8.162 -7.980 -0.250
-7.177 -7.166 -0.055
-8.162 -7.980 -0.250
-6.986 -7.231 0.177
-7.877 -9.678 1.782
-10.519 -11.352 0.771
-6.623 -7.531 0.861
-9.020 -8.654 -0.490
-6.870 -7.462 0.530
-9.121 -10.243 0.903
-8.949 -10.038 1.002
-7.992 -9.061 0.141
-6.986 -7.231 0.177
-7.914 -8.183 -0.125
-7.809 -9.307 1.476
-6.986 -7.231 0.177
-8.574 -8.663 0.012
-9.309 -9.329 -0.041
-8.639 -9.026 0.326
-8.652 -8.533 -0.200
-8.901 -8.711 -0.392
-8.574 -8.663 0.012
-10.435 -10.936 0.310
-8.124 -8.737 0.463
-6.986 -7.231 0.177
-9.020 -8.656 -0.489
-9.020 -8.663 -0.486
-7.121 -7.222 0.036
-7.180 -7.155 -0.062
-9.072 -10.150 0.751
-8.574 -8.663 0.012
-9.781 -10.444 0.586
-9.121 -10.243 0.903
-7.993 -9.064 0.150
-6.701 -7.532 0.745
-10.044 -10.639 0.562
-8.603 -8.411 -0.245
-7.636 -8.315 0.609
-8.554 -9.172 0.283
-8.949 -10.049 1.014
-7.809 -9.307 1.477
-8.067 -7.828 -0.294
-9.700 -10.418 0.628
-7.808 -9.308 1.479
-9.860 -9.606 -0.473
-9.470 -9.687 0.086
-8.940 -10.063 1.037
-6.970 -7.234 0.196
-7.984 -8.961 0.906
-13.108 -11.690 -1.640
-7.212 -7.297 0.007
-8.578 -8.898 0.268
-8.513 -9.872 1.032
-8.939 -10.037 1.013
-7.225 -7.431 0.081
-6.402 -7.589 1.112
-9.229 -8.734 -0.560
-9.848 -9.608 -0.459
-8.586 -8.665 0.003
-6.815 -7.802 0.929
-8.005 -8.787 0.719
-8.652 -8.534 -0.199
-9.121 -10.243 0.903
-8.162 -7.980 -0.250
-9.319 -10.652 1.240
-9.881 -9.486 -0.617
-9.020 -8.656 -0.489
-6.623 -7.531 0.861
-6.833 -7.496 0.578
-9.072 -10.150 0.752
-9.116 -8.660 -0.573
-8.689 -9.117 0.213
-9.019 -8.652 -0.496
-10.345 -10.509 -0.028
-9.673 -10.402 0.667
-9.073 -10.150 0.750
-8.791 -9.887 1.026
-8.754 -9.070 0.265
-8.649 -8.919 0.211
-9.020 -8.655 -0.493
-8.536 -9.362 0.767
-8.151 -9.883 1.720
-9.780 -10.442 0.588
-8.076 -8.797 0.581
-6.988 -7.229 0.173
-10.163 -10.377 0.120
-7.151 -7.175 -0.018
-9.618 -10.323 0.599
-7.279 -7.420 0.063
-7.809 -9.307 1.477
-8.520 -7.786 -0.847
-9.677 -10.340 0.590
-7.878 -9.678 1.781
-9.020 -8.652 -0.494
-7.994 -9.061 0.139
-9.759 -10.427 0.582
-6.947 -6.809 -0.244
-8.219 -9.039 0.310
-6.870 -7.464 0.532
-8.894 -8.729 -0.340
-9.330 -10.731 1.288
-8.574 -8.657 0.009
-8.573 -8.975 0.305
-7.365 -7.509 0.079
-8.950 -10.054 1.016
-8.167 -7.976 -0.258
-9.020 -8.653 -0.494
-8.574 -8.658 0.008
-6.215 -7.904 1.611
-9.120 -10.243 0.903
-8.399 -9.226 0.413
-10.111 -11.337 0.888
-7.365 -7.509 0.079
-7.994 -9.062 0.152
-8.548 -8.980 0.370
-8.948 -10.096 1.061
-9.018 -8.655 -0.495
-8.519 -9.711 1.057
-7.668 -9.253 1.562
-9.259 -10.213 0.738
-10.244 -10.519 0.199
-10.897 -12.116 1.022
-8.190 -9.871 1.668
-7.993 -9.063 0.146
-9.089 -10.138 0.728
-8.575 -8.657 0.005
-6.118 -7.553 1.350
-7.603 -7.710 -0.070
-9.528 -10.185 0.585
-8.575 -8.662 0.010
-7.897 -8.146 0.076
-8.221 -9.025 0.266
-6.420 -7.602 1.106
-8.574 -8.668 0.014
-7.888 -7.672 -0.264
-8.124 -8.737 0.461
-9.016 -8.659 -0.493
-9.451 -9.898 0.354
-7.413 -8.233 0.717
-7.803 -8.352 0.491
-8.320 -9.560 1.062
-8.124 -8.737 0.461
-8.007 -8.869 0.791
-10.557 -10.607 -0.014
-9.019 -8.653 -0.493
-8.124 -8.737 0.461
-8.655 -8.532 -0.203
-7.819 -9.302 1.461
-8.568 -9.737 1.079
-7.993 -9.064 0.147
-9.089 -10.137 0.727
-8.166 -7.975 -0.259
-7.829 -9.296 1.446
-7.365 -7.509 0.079
-6.878 -7.469 0.530
-6.991 -7.229 0.170
-9.089 -10.138 0.728
-11.922 -12.277 0.272
-6.878 -7.464 0.525
-11.213 -11.579 0.323
-9.019 -8.653 -0.493
-8.701 -9.109 0.158
-8.575 -8.662 0.010
-7.993 -9.066 0.152
-7.728 -8.706 0.873
-6.642 -7.666 0.958
-8.737 -9.295 0.399
-8.951 -10.056 1.018
-8.174 -9.872 1.687
-9.019 -8.657 -0.490
-8.221 -9.042 0.299
-7.991 -8.566 -0.267
-6.991 -7.229 0.170
-8.124 -8.737 0.461
-6.991 -7.228 0.168
-11.635 -11.208 -0.514
-9.774 -10.425 0.574
-9.760 -10.385 0.549
-6.118 -7.553 1.350
-7.822 -9.286 1.438
-6.991 -7.229 0.170
-7.868 -8.761 0.621
-9.777 -10.367 0.507
-8.231 -8.717 0.427
-6.991 -7.229 0.169
-9.019 -8.654 -0.493
-7.897 -9.667 1.751
-10.815 -11.341 0.369
-9.018 -8.655 -0.494
-6.878 -7.468 0.529
-9.886 -9.478 -0.612
-7.829 -9.296 1.446
-9.019 -8.654 -0.492
-8.431 -9.177 0.423
-7.733 -7.744 -0.083
-9.860 -9.586 -0.480
-8.099 -9.036 0.878
-6.118 -7.553 1.350
-8.574 -8.659 0.009
-7.603 -7.710 -0.070
-10.119 -11.310 0.852
-8.302 -8.939 0.271
-7.717 -8.630 0.778
-6.878 -7.477 0.538
-8.227 -7.988 -0.311
-6.420 -7.598 1.103
-9.089 -10.138 0.728
-7.535 -8.520 0.895
-6.659 -6.733 0.046
-6.876 -7.429 0.494
-9.320 -9.962 0.581
-8.222 -9.036 0.285
-9.491 -10.157 0.570
-8.575 -8.662 0.010
-6.218 -7.900 1.604
-9.604 -10.289 0.607
-9.119 -10.218 0.901
-7.881 -8.430 -0.124
-8.575 -8.662 0.010
-7.993 -9.063 0.148
-6.992 -7.229 0.169
-7.589 -8.068 0.394
-6.634 -7.534 0.851
-9.864 -9.605 -0.476
-6.878 -7.472 0.532
-8.222 -9.042 0.291
-7.280 -7.419 0.061
-8.574 -8.661 0.013
-6.420 -7.594 1.099
-8.575 -8.662 0.010
-7.167 -7.191 -0.018
-6.877 -7.479 0.541
-9.089 -10.139 0.733
-8.238 -8.843 -0.739
-8.921 -10.171 1.166
-6.878 -7.469 0.529
-8.168 -8.670 0.014
-9.120 -8.650 -0.581
-9.019 -8.653 -0.493
-7.992 -9.057 0.144
-7.829 -9.296 1.445
-9.752 -10.409 0.589
-8.247 -8.779 -0.671
-7.783 -9.248 1.440
-8.174 -9.873 1.687
-8.575 -8.662 0.010
-7.993 -9.065 0.148
-9.778 -10.435 0.586
-7.897 -9.667 1.751
-10.856 -11.030 0.085
-5.872 -6.187 0.270
-7.829 -9.296 1.445
-8.572 -8.665 0.017
-9.089 -10.138 0.729
-6.635 -7.533 0.850
-7.828 -9.300 1.451
-7.809 -8.416 0.559
-6.114 -7.516 1.318
-8.568 -9.737 1.079
-5.872 -6.187 0.270
-8.125 -8.737 0.461
-8.654 -8.522 -0.211
-7.552 -7.510 -0.108
-9.774 -10.438 0.587
-8.941 -8.673 -0.381
-8.948 -10.055 1.020
-7.803 -9.314 1.492
-8.772 -9.712 0.874
-7.800 -8.904 0.835
-8.358 -8.550 -0.063
-9.070 -9.485 0.369
-7.708 -8.077 0.215
-8.540 -9.752 1.121
-7.758 -9.262 1.479
-7.804 -9.310 1.484
-7.211 -7.135 -0.114
-9.022 -8.658 -0.490
-8.204 -9.002 0.245
-9.022 -8.656 -0.491
-8.123 -8.737 0.463
-8.540 -9.752 1.121
-9.763 -10.414 0.572
-6.807 -7.511 0.642
-8.652 -8.537 -0.196
-6.869 -7.476 0.544
-8.220 -9.039 0.288
-7.165 -7.125 -0.087
-9.022 -8.656 -0.491
-7.552 -7.510 -0.109
-8.125 -8.737 0.461
-9.269 -10.617 1.297
-7.805 -9.309 1.483
-6.871 -7.459 0.526
-6.871 -7.469 0.536
-6.871 -7.469 0.536
-7.769 -9.254 1.464
-8.948 -10.031 1.000
-7.169 -7.127 -0.071
-7.994 -9.064 0.147
-9.113 -10.247 0.914
-6.652 -6.735 0.055
-6.647 -7.642 0.946
-9.021 -8.653 -0.496
-9.866 -9.614 -0.354
-6.870 -7.458 0.523
-7.368 -7.200 -0.221
-6.988 -7.230 0.173
-8.151 -9.882 1.719
-7.809 -9.304 1.474
-8.822 -9.852 0.971
-8.654 -8.533 -0.202
-7.775 -9.252 1.457
-6.115 -7.554 1.355
-8.087 -9.091 0.847
-9.503 -10.063 0.502
-6.115 -7.551 1.351
-8.087 -8.650 0.438
-8.899 -8.698 -0.415
-8.151 -9.882 1.719
-9.035 -8.880 -0.284
-6.869 -7.478 0.546
-8.125 -8.737 0.460
-8.575 -8.662 0.011
-8.250 -8.554 0.128
-9.120 -10.243 0.903
-7.279 -7.423 0.065
-7.878 -9.678 1.781
-8.103 -8.700 0.466
-9.040 -8.901 -0.279
-7.935 -9.052 0.992
-9.021 -8.653 -0.496
-8.167 -9.880 1.700
-8.546 -9.748 1.112
-7.809 -9.307 1.476
-6.988 -7.231 0.174
-7.994 -9.065 0.149
-8.250 -8.555 0.128
-8.008 -8.780 0.710
-9.120 -10.243 0.903
-7.792 -8.338 0.486
-7.888 -9.068 1.109
-7.279 -7.418 0.061
-8.112 -8.717 0.488
-7.809 -9.307 1.476
-7.535 -7.488 -0.114
-6.872 -7.469 0.536
-8.167 -7.976 -0.259
-6.667 -7.504 0.780
-7.809 -9.307 1.476
-9.123 -8.650 -0.584
-8.573 -8.657 0.011
-8.575 -8.662 0.011
-8.546 -9.748 1.112
-7.763 -9.258 1.470
-7.690 -7.720 -0.134
-7.809 -9.306 1.476
-8.574 -8.657 0.006
-8.238 -8.732 0.462
-5.871 -6.187 0.271
-7.994 -9.064 0.147
-10.099 -11.063 0.405
-8.574 -8.661 0.010
-7.994 -9.063 0.146
-6.938 -6.807 -0.237
-7.914 -8.179 -0.127
-8.546 -9.748 1.112
-6.033 -6.673 0.485
-7.201 -7.123 -0.107
-7.775 -9.252 1.457
-9.779 -10.441 0.586
-9.021 -8.652 -0.497
-6.665 -7.468 0.742
-9.122 -8.646 -0.588
-8.221 -9.036 0.285
-8.208 -8.967 0.217
-7.994 -9.062 0.114
-13.394 -11.874 -1.743
-13.394 -11.874 -1.743
-12.346 -12.456 0.078
-12.249 -11.876 -0.841
-12.346 -12.454 0.075
-12.270 -11.674 -0.901
-11.215 -11.592 0.333
-12.242 -12.279 -0.052
-12.983 -11.780 -1.267
-12.242 -12.279 -0.052
-12.249 -11.875 -0.842
-10.585 -10.657 -0.427
-12.249 -11.876 -0.841
-13.011 -11.771 -1.303
-11.215 -11.591 0.332
-12.132 -12.254 0.039
-11.652 -11.277 -0.441
-10.585 -10.660 -0.424
-12.249 -11.876 -0.840
-13.394 -11.874 -1.743
-13.394 -11.874 -1.743
-12.270 -11.674 -0.902
-13.394 -11.874 -1.743
-13.394 -11.874 -1.743
-13.394 -11.874 -1.743
-12.270 -11.674 -0.902
-11.215 -11.595 0.337
-11.652 -11.277 -0.441
-12.270 -11.674 -0.901
-13.394 -11.874 -1.743
-12.242 -12.279 -0.052
-11.678 -11.606 -0.157
-10.965 -11.119 0.080
-12.270 -11.674 -0.902
-10.965 -11.123 0.085
-12.242 -12.279 -0.052
-9.841 -9.613 -0.440
-11.678 -11.606 -0.158
-12.249 -11.880 -0.832
-11.215 -11.589 0.331
-10.965 -11.123 0.084
-12.249 -11.876 -0.842
-12.242 -12.279 -0.052
-12.249 -11.875 -0.842
-10.965 -11.112 0.073
-10.965 -11.122 0.083
-12.249 -11.876 -0.841
-10.965 -11.120 0.081
-9.850 -10.475 0.545
-12.249 -11.874 -0.843
-12.270 -11.674 -0.902
-13.394 -11.874 -1.743
-12.270 -11.674 -0.902
-12.346 -12.456 0.077
-12.242 -12.279 -0.052
-11.684 -11.609 -0.160
-12.346 -12.447 0.068
-13.394 -11.874 -1.743
-10.965 -11.127 0.089
-12.242 -12.277 -0.053
-12.242 -12.279 -0.052
-12.249 -11.874 -0.843
-10.886 -11.759 0.821
-10.991 -11.017 -0.020
-11.215 -11.593 0.335
-12.242 -12.279 -0.052
-12.270 -11.674 -0.902
-10.886 -11.759 0.821
-12.132 -12.254 0.039
-12.346 -12.455 0.077
-11.684 -11.609 -0.160
-9.841 -9.613 -0.440
-11.684 -11.609 -0.160
-13.394 -11.874 -1.743
-13.394 -11.874 -1.743
-13.394 -11.874 -1.743
-10.989 -11.025 -0.006
-12.346 -12.450 0.071
-13.394 -11.874 -1.743
-11.652 -11.278 -0.441
-12.242 -12.279 -0.052
-12.270 -11.674 -0.901
-12.346 -12.448 0.069
-12.242 -12.279 -0.052
-11.678 -11.606 -0.157
-10.965 -11.129 0.091
-11.215 -11.589 0.331
-9.841 -9.613 -0.440
-11.215 -11.591 0.333
-12.346 -12.454 0.075
-13.394 -11.874 -1.743
-10.946 -10.866 -0.132
-12.242 -12.279 -0.052
-12.346 -12.459 0.080
-12.270 -11.674 -0.902
-12.238 -11.858 -0.854
-10.585 -10.660 -0.424
-10.965 -11.118 0.080
-10.880 -11.937 0.860
-9.841 -9.613 -0.440
-12.242 -12.279 -0.052
-12.249 -11.875 -0.842
-12.270 -11.674 -0.902
-12.083 -12.269 0.093
-9.841 -9.613 -0.440
-12.268 -11.673 -0.900
-12.268 -11.673 -0.901
-9.829 -9.616 -0.425
-10.989 -11.011 -0.024
-10.989 -11.011 -0.023
-10.967 -11.123 0.084
-12.268 -11.673 -0.901
-12.268 -11.673 -0.900
-11.740 -10.585 -1.393
-11.204 -11.593 0.346
-12.968 -11.780 -1.251
-11.205 -11.591 0.343
-10.992 -11.011 -0.027
-12.269 -11.674 -0.901
-12.269 -11.673 -0.901
-13.387 -11.875 -1.736
-8.800 -9.537 0.699
-9.882 -9.479 -0.601
-10.864 -11.755 0.837
-9.836 -9.613 -0.435
-8.549 -8.890 0.292
-11.664 -11.276 -0.454
-13.387 -11.875 -1.736
-10.596 -10.660 -0.444
-8.514 -8.872 0.307
-12.247 -12.278 -0.057
-9.853 -10.559 0.550
-12.347 -12.456 0.077
-11.679 -11.602 -0.162
-9.802 -9.642 -0.380
-9.881 -9.479 -0.600
-11.196 -11.590 0.352
-9.881 -9.479 -0.600
-9.836 -9.613 -0.435
-12.257 -11.645 -0.923
-12.269 -11.674 -0.901
-12.245 -12.261 -0.071
-11.195 -11.590 0.352
-13.387 -11.875 -1.736
-10.961 -11.118 0.085
-13.387 -11.875 -1.736
-8.889 -9.534 0.609
-11.196 -11.588 0.351
-10.960 -11.111 0.080
-12.247 -12.278 -0.057
-9.847 -10.469 0.544
-11.131 -11.323 -0.058
-9.836 -9.612 -0.436
-10.966 -10.853 -0.192
-9.802 -9.642 -0.380
-12.090 -12.341 0.168
-9.836 -9.613 -0.435
-11.685 -11.606 -0.165
-13.387 -11.875 -1.736
-11.205 -11.591 0.343
-12.246 -12.267 -0.069
-12.269 -11.674 -0.901
-8.549 -8.890 0.292
-12.247 -12.278 -0.057
-10.959 -11.116 0.084
-11.195 -11.587 0.350
-11.679 -11.603 -0.162
-11.685 -11.606 -0.165
-8.507 -8.871 0.312
-12.347 -12.457 0.077
-12.347 -12.460 0.081
-9.836 -9.616 -0.434
-12.126 -12.255 0.046
-9.836 -9.613 -0.435
-10.410 -10.482 -0.124
-11.685 -11.605 -0.166
-12.270 -11.674 -0.901
-12.257 -11.645 -0.923
-9.881 -9.479 -0.598
-10.992 -11.022 -0.015
-12.247 -12.278 -0.057
-12.132 -12.252 0.038
-11.679 -11.601 -0.164
-11.685 -11.607 -0.161
-11.685 -11.610 -0.161
-10.942 -11.817 0.585
-10.960 -11.114 0.082
-9.032 -8.882 -0.288
-12.270 -11.674 -0.901
-11.685 -11.606 -0.165
-9.836 -9.613 -0.435
-12.247 -12.278 -0.057
-10.597 -10.656 -0.447
-11.205 -11.585 0.337
-9.772 -9.388 -0.608
-12.238 -11.859 -0.853
-9.881 -9.479 -0.600
-12.238 -11.858 -0.855
-9.802 -9.642 -0.380
-11.196 -11.590 0.351
-12.257 -11.644 -0.923
-9.836 -9.613 -0.435
-10.959 -11.120 0.089
-12.246 -12.281 -0.058
-9.836 -9.613 -0.435
-12.150 -12.185 -0.083
-11.205 -11.588 0.340
-13.387 -11.875 -1.736
-11.205 -11.594 0.346
-8.549 -8.890 0.292
-9.831 -9.646 -0.392
-12.269 -11.674 -0.901
-12.111 -12.253 0.060
-10.984 -10.964 -0.067
-11.746 -11.853 0.033
-11.205 -11.592 0.344
-9.822 -9.631 -0.416
-10.989 -11.036 -0.025
-12.226 -12.251 -0.054
-9.842 -10.455 0.534
-10.557 -11.795 0.784
-12.111 -12.252 0.057
-9.836 -9.613 -0.435
-8.988 -8.904 -0.229
-11.020 -10.934 -0.136
-8.507 -8.871 0.312
-12.255 -11.667 -0.899
-9.822 -9.631 -0.416
-8.805 -11.148 0.854
-11.030 -11.005 -0.070
-9.822 -9.622 -0.423
-12.111 -12.253 0.059
-8.878 -8.988 0.068
-12.247 -12.278 -0.057
-12.111 -12.254 0.061
-12.132 -12.253 0.038
-12.257 -11.644 -0.923
-12.093 -12.304 0.122
-9.507 -9.277 -0.705
-12.238 -11.858 -0.853
-12.257 -11.644 -0.923
-11.029 -11.000 -0.079
-11.205 -11.589 0.341
-8.122 -9.067 0.887
-12.724 -11.065 -1.778
-12.111 -12.254 0.061
-9.802 -9.642 -0.380
-11.662 -11.299 -0.430
-11.012 -10.925 -0.129
-11.205 -11.589 0.341
-12.724 -11.065 -1.778
-10.965 -12.054 0.847
-8.688 -9.048 0.315
-8.122 -9.071 0.891
-9.208 -8.969 -0.281
-8.800 -9.537 0.700
-10.914 -10.872 -0.097
-8.560 -8.918 0.295
-8.120 -9.040 0.863
-9.502 -9.281 -0.696
-12.346 -12.469 0.090
-9.836 -9.613 -0.435
-10.452 -11.317 0.824
-9.836 -9.612 -0.435
-9.868 -10.298 -0.256
-8.636 -8.781 0.107
-12.110 -12.243 0.053
-9.881 -9.478 -0.598
-10.995 -10.880 -0.176
-12.111 -12.253 0.060
-12.116 -12.255 0.054
-10.889 -11.759 0.818
-10.969 -10.912 -0.108
-10.960 -11.047 0.018
-9.802 -9.632 -0.388
-12.269 -11.673 -0.901
-12.269 -11.674 -0.901
-9.847 -10.470 0.542
-12.269 -11.674 -0.901
-12.269 -11.674 -0.901
-8.549 -8.890 0.292
-9.790 -10.465 0.601
-9.836 -9.612 -0.435
-12.269 -11.674 -0.901
-10.551 -10.601 -0.286
-12.130 -12.267 0.059
-9.802 -9.642 -0.380
-8.566 -8.515 -0.127
-8.889 -9.533 0.607
-9.294 -9.420 0.095
-8.663 -8.532 -0.212
-8.661 -8.535 -0.208
-11.203 -11.611 0.364
-12.093 -12.284 0.099
-10.966 -10.927 -0.104
-11.685 -11.608 -0.163
-9.802 -9.641 -0.380
-12.093 -12.286 0.101
-12.247 -12.278 -0.057
-10.371 -11.015 0.381
-13.387 -11.875 -1.736
-9.797 -10.468 0.598
-10.600 -10.653 -0.446
-13.387 -11.875 -1.736
-10.959 -11.145 0.114
-9.882 -9.479 -0.601
-9.845 -10.462 0.537
-11.055 -11.001 -0.184
-9.846 -10.466 0.541
-8.661 -8.534 -0.208
-10.912 -10.809 -0.160
-8.654 -8.520 -0.218
-11.196 -11.590 0.352
-10.965 -11.064 0.028
-9.840 -10.451 0.531
-12.269 -11.674 -0.901
-10.959 -11.103 0.071
-9.845 -10.461 0.538
-9.881 -9.474 -0.601
-12.248 -11.893 -0.833
-8.660 -8.535 -0.207
-10.947 -11.173 0.158
-8.839 -9.088 0.017
-13.386 -11.875 -1.737
-8.644 -8.534 -0.191
-12.268 -11.673 -0.900
-7.194 -7.618 0.356
-12.268 -11.673 -0.901
-9.846 -10.475 0.550
-8.643 -8.536 -0.189
-12.661 -11.019 -1.775
-10.058 -10.661 0.535
-10.859 -11.753 0.839
-9.820 -9.673 -0.429
-8.643 -8.536 -0.187
-9.873 -9.481 -0.592
-9.837 -10.447 0.531
-8.942 -10.060 1.030
-8.830 -9.088 0.025
-9.755 -7.820 -1.997
-8.094 -9.053 0.901
-9.773 -10.460 0.610
-9.842 -10.461 0.540
-10.859 -11.753 0.840
-9.404 -10.056 0.281
-8.884 -8.886 -0.036
-8.643 -8.534 -0.190
-9.846 -9.604 -0.462
-9.755 -7.820 -1.997
-10.960 -11.087 0.056
-8.898 -8.702 -0.368
-9.587 -7.814 -1.837
-8.940 -10.073 1.044
-8.899 -8.712 -0.393
-8.899 -8.697 -0.420
-8.940 -10.064 1.037
-11.983 -12.291 0.220
-8.528 -9.751 1.132
-9.828 -9.547 -0.481
-9.843 -10.460 0.540
-13.161 -11.864 -1.497
-6.702 -7.478 0.758
-8.601 -9.126 0.261
-6.972 -7.238 0.196
-7.969 -8.246 0.200
-8.643 -8.535 -0.190
-10.960 -11.121 0.089
-10.960 -11.113 0.081
-8.977 -8.943 -0.091
-9.851 -9.605 -0.464
-12.661 -11.019 -1.775
-9.851 -9.605 -0.464
-8.776 -9.157 0.227
-7.194 -7.619 0.356
-8.643 -8.534 -0.191
-10.202 -10.904 0.658
-7.194 -7.618 0.355
-9.158 -8.944 -0.270
-10.064 -11.202 0.925
-9.790 -10.455 0.592
-7.194 -7.618 0.356
-8.901 -8.702 -0.408
-8.611 -9.125 0.252
-6.972 -7.238 0.198
-12.257 -11.643 -0.924
-8.090 -8.838 0.679
-11.680 -11.602 -0.164
-9.851 -9.605 -0.463
-9.791 -10.468 0.603
-9.784 -10.443 0.582
-8.940 -10.111 1.083
-10.960 -11.124 0.091
-9.851 -9.605 -0.463
-7.194 -7.618 0.356
-6.586 -7.513 0.883
-10.960 -11.078 0.047
-13.164 -11.856 -1.505
-7.194 -7.619 0.356
-9.599 -9.245 -0.385
-7.972 -8.959 0.746
-9.851 -9.605 -0.463
-12.246 -12.266 -0.070
-9.867 -9.464 -0.578
-9.789 -10.461 0.597
-8.643 -8.534 -0.190
-8.528 -9.751 1.132
-9.576 -7.827 -1.813
-8.942 -10.063 1.033
-7.194 -7.618 0.356
-9.850 -9.604 -0.464
-8.643 -8.535 -0.190
-7.194 -7.619 0.356
-6.586 -7.518 0.887
-12.659 -11.019 -1.773
-12.659 -11.019 -1.773
-9.850 -9.605 -0.464
-7.194 -7.617 0.354
-8.643 -8.529 -0.194
-8.206 -8.477 0.207
-8.068 -8.581 -0.063
-9.627 -9.335 -0.346
-8.636 -8.728 -0.230
-9.814 -9.577 -0.362
-9.702 -9.390 -0.367
-8.753 -8.920 -0.176
-10.751 -10.724 -0.065
-8.987 -8.905 -0.228
-9.768 -9.415 -0.397
-8.493 -8.765 0.209
-8.477 -8.784 0.244
-9.139 -9.001 -0.195
-8.495 -8.755 0.197
-8.149 -8.451 0.248
-8.769 -8.971 -0.008
-8.778 -9.007 -0.261
-7.994 -8.587 0.022
-8.241 -8.667 0.359
-8.439 -8.762 0.260
-10.964 -10.853 -0.162
-8.490 -8.777 0.223
-9.102 -9.283 -0.030
-9.044 -9.160 -0.097
-10.783 -10.973 0.145
-8.071 -8.581 -0.064
-7.994 -8.587 0.022
-8.103 -8.507 0.331
-9.623 -9.321 -0.385
-7.994 -8.587 0.022
-10.906 -11.177 0.220
-8.481 -8.726 0.188
-9.838 -9.587 -0.374
-7.873 -8.421 0.475
-9.872 -9.625 -0.387
-9.676 -9.769 -0.006
-8.241 -8.663 0.355
-8.241 -8.663 0.355
-11.697 -11.593 -0.188
-7.994 -8.587 0.022
-10.597 -10.653 -0.443
-8.487 -8.771 0.222
-7.993 -8.587 0.022
-7.993 -8.587 0.022
-9.677 -9.385 -0.396
-9.685 -9.359 -0.375
-9.448 -9.618 -0.117
-10.986 -11.035 0.006
-11.675 -11.410 -0.328
-11.697 -11.590 -0.191
-8.624 -8.712 -0.241
-11.193 -11.609 0.373
-9.757 -9.501 -0.338
-8.241 -8.662 0.355
-9.515 -9.567 -0.195
-7.993 -8.587 0.022
-7.815 -8.339 0.456
-8.652 -8.773 -0.203
-11.025 -11.000 -0.065
-9.452 -9.596 -0.114
-8.364 -8.747 0.222
-7.909 -8.512 0.544
-9.856 -9.588 -0.394
-9.750 -9.464 -0.364
-10.532 -10.550 -0.180
-8.885 -8.875 -0.048
-11.025 -10.969 -0.109
-11.689 -11.277 -0.476
-9.839 -9.556 -0.406
-10.681 -10.752 0.047
-11.014 -10.941 -0.126
-9.446 -9.606 -0.055
-8.147 -8.460 0.256
-8.613 -8.756 -0.251
-11.021 -10.951 -0.116
-9.457 -9.557 -0.147
-8.181 -8.508 0.254
-9.277 -9.689 0.251
-11.028 -10.995 -0.081
-9.878 -9.640 -0.378
-9.231 -9.641 0.242
-11.672 -11.362 -0.382
-11.670 -11.391 -0.351
-9.733 -9.393 -0.406
-7.440 -7.077 -0.460
-10.809 -11.009 0.163
-8.017 -8.505 0.415
-10.553 -10.546 -0.239
-8.382 -8.664 0.217
-8.183 -8.509 0.252
-9.784 -9.547 -0.338
-7.912 -8.458 0.482
-7.797 -8.337 0.478
-10.685 -10.737 0.040
-11.011 -11.003 -0.065
-9.449 -9.511 -0.169
-8.485 -8.777 0.230
-11.029 -11.008 -0.066
-7.993 -8.587 0.022
-9.675 -9.398 -0.343
-8.495 -8.760 0.201
-8.495 -8.761 0.202
-9.353 -9.697 -0.185
-7.328 -7.180 -0.151
-9.404 -9.347 -0.131
-9.380 -9.478 -0.170
-9.378 -9.648 -0.012
-11.195 -11.583 0.345
-9.838 -9.597 -0.362
-6.301 -6.178 -0.149
-11.689 -11.277 -0.475
-7.993 -8.587 0.022
-9.735 -9.391 -0.388
-7.993 -8.587 0.022
-9.831 -9.572 -0.383
-7.797 -8.337 0.478
-11.025 -11.016 -0.052
-9.652 -9.353 -0.382
-11.164 -11.652 0.448
-11.683 -11.269 -0.476
-9.795 -9.451 -0.409
-9.785 -9.438 -0.418
-7.815 -8.337 0.453
-7.329 -7.141 -0.187
-8.747 -8.748 -0.127
-9.461 -9.570 -0.143
-7.995 -8.587 0.020
-7.995 -8.587 0.020
-6.980 -6.869 -0.174
-10.993 -11.054 -0.007
-9.077 -9.164 0.050
-9.447 -9.560 -0.143
-9.580 -9.318 -0.302
-7.994 -8.586 0.021
-7.441 -7.076 -0.461
-11.033 -11.006 -0.072
-11.201 -11.563 0.320
-11.203 -11.571 0.326
-7.122 -7.183 0.020
-8.484 -8.782 0.231
-9.828 -9.615 -0.329
-8.019 -8.505 0.413
-9.492 -9.227 -0.328
-8.311 -8.664 0.287
-8.242 -8.663 0.354
-11.024 -10.984 -0.099
-7.996 -8.587 0.020
-7.108 -7.180 0.025
-7.156 -7.233 0.034
-8.102 -8.498 0.323
-7.895 -8.422 0.458
-8.241 -8.663 0.356
-7.328 -7.140 -0.186
-7.995 -8.587 0.020
-11.007 -10.889 -0.167
-8.241 -8.663 0.356
-8.463 -8.766 0.236
-11.016 -11.044 -0.050
-6.301 -6.179 -0.149
-8.880 -8.968 -0.231
-9.792 -9.531 -0.363
-8.367 -8.700 0.271
-9.456 -9.580 -0.122
-6.426 -6.261 -0.209
-11.034 -10.999 -0.084
-7.994 -8.587 0.021
-7.810 -8.377 0.494
-10.998 -10.866 -0.193
-9.534 -9.308 -0.276
-10.545 -10.667 0.098
-9.447 -9.568 -0.139
-7.012 -6.967 -0.108
-10.848 -10.763 -0.154
-8.072 -8.581 -0.065
-8.241 -8.663 0.356
-9.831 -9.598 -0.344
-6.975 -6.867 -0.167
-8.496 -8.761 0.201
-9.242 -9.203 -0.095
-8.428 -8.643 0.156
-9.698 -9.414 -0.364
-9.458 -9.581 -0.155
-9.803 -9.601 -0.326
-9.748 -9.408 -0.392
-8.241 -8.664 0.356
-11.690 -11.267 -0.475
-9.895 -9.802 -0.392
-7.995 -8.587 0.020
-9.729 -9.387 -0.389
-10.800 -10.761 -0.182
-8.241 -8.663 0.355
-6.984 -6.850 -0.178
-9.459 -9.531 -0.171
-7.055 -7.025 -0.089
-9.831 -9.556 -0.395
-7.020 -7.028 -0.184
-8.496 -8.762 0.201
-7.329 -7.135 -0.194
-8.242 -8.663 0.354
-8.871 -9.026 -0.076
-8.461 -8.762 0.227
-8.240 -8.662 0.356
-11.033 -10.983 -0.098
-7.994 -8.589 0.029
-8.240 -8.660 0.354
-8.722 -8.693 -0.137
-9.426 -9.683 -0.025
-11.205 -11.579 0.332
-11.359 -11.197 -0.221
-11.704 -11.587 -0.202
-7.919 -8.480 0.495
-7.004 -6.880 -0.183
-8.617 -8.912 0.171
-9.737 -9.404 -0.385
-5.960 -6.054 0.060
-10.636 -10.840 0.162
-11.025 -11.024 -0.057
-10.804 -10.967 0.139
-10.575 -10.641 -0.221
-9.445 -9.556 -0.145
-7.894 -8.499 0.502
-7.994 -8.587 0.021
-8.018 -8.504 0.413
-8.870 -9.024 -0.162
-9.406 -9.610 -0.129
-8.078 -8.486 0.336
-7.201 -7.359 0.077
-8.807 -8.997 -0.186
-8.235 -8.677 0.375
-8.988 -8.905 -0.231
-7.003 -6.889 -0.177
-8.707 -8.906 -0.223
-7.017 -6.938 -0.135
-8.737 -9.093 -0.019
-8.098 -8.492 0.323
-12.118 -12.262 0.062
-8.150 -8.451 0.247
-11.977 -12.493 0.382
-9.447 -9.653 -0.058
-8.242 -8.664 0.355
-9.657 -9.369 -0.320
-8.242 -8.663 0.355
-8.213 -8.532 0.216
-8.495 -8.761 0.201
-7.054 -7.013 -0.095
-8.110 -8.519 0.334
-8.495 -8.761 0.201
-11.032 -11.009 -0.070
-9.562 -9.249 -0.354
-7.944 -8.413 0.399
-7.313 -7.169 -0.142
-7.994 -8.586 0.021
-7.910 -8.438 0.464
-7.994 -8.587 0.021
-8.174 -8.547 0.206
-7.716 -7.488 -0.294
-9.780 -9.535 -0.334
-8.239 -8.663 0.358
-11.011 -11.027 -0.020
-8.147 -8.440 0.240
-7.295 -6.784 -0.581
-9.307 -9.259 -0.159
-10.859 -10.933 0.048
-8.128 -8.492 0.301
-10.617 -10.804 0.131
-10.928 -10.848 -0.147
-7.546 -7.097 -0.545
-8.495 -8.759 0.200
-8.495 -8.761 0.202
-10.889 -10.722 -0.192
-8.657 -8.725 -0.077
-9.409 -9.562 -0.147
-10.732 -10.843 0.083
-7.993 -8.587 0.022
-8.495 -8.761 0.202
-7.331 -7.143 -0.188
-9.602 -9.386 -0.286
-11.580 -11.367 -0.287
-7.898 -8.434 0.473
-8.100 -8.502 0.329
-6.305 -6.177 -0.154
-8.243 -8.662 0.352
-9.617 -9.333 -0.327
-7.996 -8.587 0.020
-7.013 -6.882 -0.187
-9.584 -9.360 -0.278
-8.607 -8.709 -0.251
-11.035 -11.001 -0.081
-10.777 -10.981 0.157
-7.331 -7.155 -0.179
-7.330 -7.152 -0.180
-9.461 -9.577 -0.143
-7.547 -7.097 -0.545
-8.101 -8.499 0.325
-7.295 -6.782 -0.584
-8.475 -8.741 0.043
-13.739 -13.265 -0.540
-15.065 -13.724 -1.322
-12.817 -12.703 -0.130
-17.111 -13.165 -4.182
-12.817 -12.703 -0.130
-12.104 -11.691 -0.457
-12.169 -11.920 -0.300
-12.817 -12.703 -0.130
-12.445 -12.758 0.171
-12.521 -12.756 0.112
-12.817 -12.703 -0.130
-12.169 -11.920 -0.300
-17.111 -13.165 -4.182
-13.570 -13.268 -0.390
-15.114 -13.248 -2.002
-12.169 -11.920 -0.300
-12.445 -12.758 0.171
-17.081 -13.172 -4.145
-12.817 -12.703 -0.130
-15.114 -13.248 -2.003
-17.111 -13.165 -4.182
-13.565 -13.267 -0.388
-12.521 -12.756 0.112
-17.110 -13.165 -4.181
-12.817 -12.703 -0.130
-15.065 -13.724 -1.322
-12.145 -11.921 -0.271
-15.065 -13.724 -1.322
-15.112 -13.249 -1.998
-12.169 -11.920 -0.300
-17.111 -13.165 -4.182
-15.114 -13.248 -2.003
-16.945 -13.473 -4.085
-12.148 -11.923 -0.272
-13.490 -13.255 -0.301
-17.081 -13.172 -4.145
-13.493 -13.252 -0.306
-12.817 -12.703 -0.130
-12.710 -12.703 -0.023
-12.402 -12.759 0.234
-12.148 -11.923 -0.272
-15.114 -13.248 -2.001
-13.565 -13.267 -0.387
-13.565 -13.267 -0.387
-15.114 -13.248 -2.001
-13.502 -13.246 -0.343
-15.114 -13.248 -2.002
-12.401 -12.759 0.234
-12.104 -11.690 -0.457
-13.568 -13.268 -0.389
-17.080 -13.172 -4.143
-12.030 -11.692 -0.382
-12.148 -11.921 -0.274
-15.114 -13.248 -2.002
-12.029 -11.694 -0.379
-16.222 -13.609 -3.303
-15.065 -13.724 -1.322
-12.710 -12.703 -0.023
-12.027 -11.686 -0.387
-9.563 -8.947 -0.637
-15.114 -13.248 -2.002
-12.148 -11.923 -0.272
-12.148 -11.923 -0.272
-15.114 -13.248 -2.002
-13.492 -13.253 -0.303
-13.516 -13.261 -0.342
-13.492 -13.254 -0.303
-13.492 -13.254 -0.303
-12.709 -12.703 -0.023
-11.470 -11.749 0.241
-15.114 -13.248 -2.002
-15.114 -13.248 -2.002
-13.497 -13.254 -0.306
-12.709 -12.703 -0.023
-17.111 -13.165 -4.182
-12.028 -11.685 -0.389
-13.565 -13.267 -0.388
-13.520 -13.262 -0.345
-9.564 -8.947 -0.638
-12.148 -11.923 -0.273
-13.562 -13.268 -0.382
-13.517 -13.263 -0.339
-14.569 -13.284 -1.406
-13.492 -13.259 -0.299
-12.710 -12.702 -0.023
-13.566 -13.267 -0.388
-12.415 -12.759 0.217
-12.710 -12.702 -0.023
-12.028 -11.686 -0.387
-17.111 -13.165 -4.182
-13.459 -11.875 -1.542
-13.521 -13.261 -0.346
-12.028 -11.686 -0.388
-13.492 -13.253 -0.304
-15.114 -13.248 -2.002
-12.709 -12.703 -0.023
-12.709 -12.703 -0.023
-12.402 -12.760 0.234
-11.467 -11.738 0.232
-17.081 -13.172 -4.145
-12.710 -12.701 -0.025
-13.565 -13.267 -0.388
-12.148 -11.922 -0.274
-15.070 -13.721 -1.330
-15.114 -13.248 -2.003
-15.114 -13.248 -2.002
-13.520 -13.262 -0.345
-11.862 -13.005 1.135
-12.029 -11.695 -0.378
-13.514 -13.262 -0.340
-12.148 -11.923 -0.273
-17.081 -13.172 -4.144
-12.389 -12.773 0.265
-12.710 -12.701 -0.025
-15.065 -13.724 -1.322
-12.414 -12.760 0.219
-17.081 -13.172 -4.144
-13.533 -11.849 -1.651
-13.492 -13.254 -0.304
-16.211 -13.603 -3.287
-12.030 -11.693 -0.381
-15.038 -13.717 -1.302
-15.114 -13.248 -2.002
-12.028 -11.687 -0.386
-15.112 -13.249 -1.998
-14.595 -13.279 -1.448
-13.520 -13.262 -0.344
-12.025 -12.686 0.665
-12.027 -11.687 -0.386
-13.491 -13.254 -0.303
-17.111 -13.165 -4.181
-17.111 -13.165 -4.181
-11.471 -12.503 1.012
-15.114 -13.248 -2.002
-11.655 -11.970 0.280
-12.148 -11.923 -0.273
-13.516 -13.261 -0.342
-17.111 -13.165 -4.181
-16.211 -13.603 -3.286
-12.149 -11.922 -0.275
-12.030 -11.693 -0.381
-13.498 -13.253 -0.309
-11.662 -12.055 0.369
-12.389 -12.773 0.265
-13.492 -13.252 -0.305
-13.516 -13.260 -0.344