-6.211 -8.207 1.998
-6.530 -8.763 2.234
-6.530 -8.763 2.234
-6.529 -8.765 2.236
-6.211 -8.208 1.999
-7.237 -9.473 2.249
-6.530 -8.764 2.235
-6.211 -8.207 1.998
-6.211 -8.207 1.998
-7.463 -9.261 1.816
-6.211 -8.207 1.998
-6.529 -8.758 2.228
-6.530 -8.763 2.234
-7.470 -9.357 1.903
-6.530 -8.763 2.234
-7.470 -9.353 1.898
-7.170 -9.050 1.875
-7.470 -9.341 1.887
-7.170 -9.050 1.875
-6.430 -8.675 2.251
-6.393 -9.130 2.737
-7.170 -9.050 1.875
-6.530 -8.764 2.236
-7.471 -9.350 1.895
-6.211 -8.207 1.998
-4.847 -6.780 1.951
-6.211 -8.208 1.999
-7.468 -9.365 1.914
-4.848 -6.777 1.948
-6.530 -8.763 2.234
-5.167 -8.057 2.908
-7.470 -9.343 1.888
-7.466 -9.331 1.882
-7.461 -9.284 1.840
-6.530 -8.763 2.234
-6.530 -8.762 2.233
-7.470 -9.351 1.896
-7.256 -9.473 2.221
-7.470 -9.342 1.887
-6.530 -8.764 2.234
-7.459 -9.323 1.877
-7.469 -9.361 1.908
-7.466 -9.382 1.933
-6.530 -8.763 2.234
-6.211 -8.207 1.998
-6.206 -8.197 1.995
-6.211 -8.207 1.998
-7.470 -9.359 1.905
-7.225 -9.061 1.831
-7.431 -9.423 2.004
-7.472 -9.361 1.905
-4.189 -6.410 2.237
-6.531 -8.762 2.232
-7.472 -9.345 1.889
-7.467 -9.406 1.955
-6.531 -8.762 2.231
-6.531 -8.762 2.231
-6.212 -8.207 1.996
-6.531 -8.763 2.232
-7.472 -9.350 1.893
-6.531 -8.761 2.231
-7.280 -9.500 2.227
-7.471 -9.364 1.909
-6.531 -8.762 2.231
-6.531 -8.762 2.231
-6.212 -8.206 1.996
-6.531 -8.762 2.232
-7.453 -9.326 1.891
-4.849 -6.778 1.948
-6.212 -8.207 1.996
-6.212 -8.207 1.996
-7.472 -9.349 1.893
-4.849 -6.774 1.944
-7.470 -9.351 1.897
-6.212 -8.207 1.996
-7.390 -9.200 1.826
-6.531 -8.762 2.231
-7.361 -9.403 2.053
-4.849 -6.777 1.947
-6.530 -8.753 2.223
-7.171 -9.048 1.871
-7.319 -9.284 1.980
-6.526 -8.749 2.229
-5.318 -6.529 1.225
-6.212 -8.207 1.996
-6.402 -9.111 2.708
-7.467 -9.377 1.927
-6.531 -8.762 2.232
-7.472 -9.347 1.891
-5.185 -7.524 2.318
-6.531 -8.762 2.232
-6.530 -8.756 2.225
-7.467 -9.315 1.864
-6.531 -8.763 2.233
-7.366 -9.282 1.923
-6.208 -8.181 1.975
-7.471 -9.339 1.882
-5.173 -8.058 2.903
-4.849 -6.779 1.949
-4.791 -7.885 3.105
-7.211 -9.450 2.255
-4.424 -6.484 2.081
-6.531 -8.763 2.232
-7.471 -9.371 1.916
-7.465 -9.295 1.845
-6.531 -8.762 2.231
-7.472 -9.350 1.893
-7.171 -9.048 1.871
-7.171 -9.048 1.871
-4.189 -6.411 2.238
-4.951 -8.498 3.555
-4.189 -6.408 2.234
-7.171 -9.048 1.871
-6.531 -8.762 2.231
-7.450 -9.365 1.918
-7.471 -9.364 1.909
-7.227 -9.454 2.238
-6.212 -8.207 1.996
-6.531 -8.762 2.231
-7.467 -9.389 1.926
-4.849 -6.771 1.942
-6.531 -8.762 2.232
-4.791 -7.886 3.106
-7.171 -9.048 1.871
-7.248 -9.566 2.321
-6.212 -8.207 1.996
-6.212 -8.206 1.996
-7.272 -9.468 2.218
-6.531 -8.765 2.235
-7.472 -9.350 1.893
-6.212 -8.207 1.996
-4.849 -6.782 1.952
-7.243 -9.506 2.276
-7.352 -9.278 1.948
-7.457 -9.323 1.880
-7.472 -9.349 1.892
-6.211 -8.200 1.991
-6.376 -8.554 2.184
-7.450 -9.219 1.784
-6.372 -8.522 2.153
-6.806 -9.015 2.215
-7.467 -9.316 1.863
-4.849 -6.778 1.948
-5.308 -7.500 2.183
-7.472 -9.350 1.894
-6.531 -8.761 2.231
-6.496 -8.449 1.954
-6.806 -9.015 2.216
-4.424 -6.482 2.079
-6.402 -9.110 2.708
-7.238 -9.513 2.290
-6.212 -8.206 1.996
-4.935 -6.618 1.683
-6.376 -8.548 2.178
-6.376 -8.550 2.180
-7.407 -9.292 1.906
-6.401 -9.116 2.714
-6.431 -8.672 2.247
-4.849 -6.777 1.947
-6.212 -8.207 1.996
-5.673 -8.132 2.431
-7.472 -9.350 1.894
-7.472 -9.350 1.894
-7.453 -9.289 1.851
-6.531 -8.763 2.233
-7.453 -9.282 1.842
-6.530 -8.766 2.236
-6.496 -8.449 1.954
-6.531 -8.762 2.232
-7.402 -9.393 1.991
-7.472 -9.350 1.893
-6.806 -9.015 2.216
-6.531 -8.762 2.232
-4.951 -8.496 3.553
-6.496 -8.449 1.954
-6.531 -8.762 2.232
-6.531 -8.764 2.234
-6.496 -8.449 1.954
-6.531 -8.762 2.231
-6.531 -8.762 2.231
-7.462 -9.398 1.952
-6.496 -8.449 1.954
-6.376 -8.552 2.182
-7.472 -9.349 1.893
-7.460 -9.352 1.906
-7.171 -9.048 1.871
-6.530 -8.756 2.227
-7.472 -9.350 1.893
-7.286 -9.511 2.230
-6.806 -9.015 2.216
-5.318 -6.530 1.226
-6.212 -8.207 1.996
-7.249 -9.490 2.255
-6.529 -8.768 2.242
-6.212 -8.206 1.996
-7.472 -9.350 1.893
-7.464 -9.302 1.853
-6.531 -8.763 2.232
-6.496 -8.449 1.954
-7.446 -9.329 1.895
-7.472 -9.348 1.892
-6.531 -8.763 2.232
-4.849 -6.772 1.943
-6.494 -8.873 2.377
-6.531 -8.762 2.231
-7.465 -9.414 1.967
-6.212 -8.206 1.996
-4.849 -6.784 1.954
-5.091 -7.992 2.910
-7.471 -9.356 1.900
-7.472 -9.346 1.890
-7.171 -9.048 1.871
-7.472 -9.350 1.894
-6.431 -8.672 2.247
-7.472 -9.350 1.893
-6.212 -8.206 1.996
-7.171 -9.048 1.871
-6.530 -8.759 2.229
-6.212 -8.206 1.995
-7.171 -9.048 1.871
-6.103 -8.635 2.541
-6.531 -8.762 2.231
-6.376 -8.553 2.183
-4.974 -6.638 1.666
-4.966 -6.647 1.683
-7.360 -9.342 1.981
-7.472 -9.350 1.893
-7.472 -9.350 1.893
-7.471 -9.362 1.907
-6.483 -8.678 2.199
-7.203 -9.029 1.820
-7.470 -9.349 1.894
-6.212 -8.191 1.977
-6.530 -8.759 2.230
-6.529 -8.758 2.228
-4.425 -6.483 2.078
-7.470 -9.348 1.893
-4.042 -5.981 1.895
-4.258 -5.684 1.448
-7.470 -9.349 1.895
-7.470 -9.353 1.898
-6.348 -8.825 2.483
-7.470 -9.349 1.894
-6.495 -8.448 1.954
-6.200 -8.198 2.001
-6.530 -8.759 2.229
-7.470 -9.348 1.894
-7.414 -9.238 1.827
-7.470 -9.348 1.894
-6.211 -8.207 1.998
-5.316 -6.529 1.227
-7.469 -9.329 1.875
-5.317 -6.529 1.227
-7.170 -9.050 1.875
-6.530 -8.765 2.236
-4.848 -6.777 1.949
-5.989 -6.593 0.613
-7.471 -9.350 1.895
-6.531 -8.763 2.233
-7.471 -9.350 1.895
-6.211 -8.207 1.998
-4.031 -5.961 1.950
-7.466 -9.358 1.905
-7.435 -9.380 1.958
-6.209 -8.212 2.003
-7.471 -9.346 1.890
-7.468 -9.384 1.931
-7.471 -9.352 1.897
-7.170 -9.050 1.874
-4.511 -6.121 1.611
-7.271 -9.370 2.118
-7.441 -9.299 1.873
-6.770 -8.646 1.862
-4.946 -8.474 3.537
-4.943 -6.619 1.679
-7.467 -9.331 1.880
-6.211 -8.207 1.998
-7.471 -9.350 1.895
-6.211 -8.207 1.998
-6.531 -8.763 2.233
-7.259 -9.485 2.240
-6.211 -8.207 1.998
-7.471 -9.350 1.895
-7.471 -9.350 1.895
-6.141 -8.826 2.694
-4.848 -6.749 1.922
-6.211 -8.208 1.998
-6.786 -9.018 2.238
-4.973 -6.638 1.666
-7.471 -9.353 1.898
-6.211 -8.207 1.997
-5.798 -7.721 1.928
-6.806 -9.016 2.216
-7.471 -9.350 1.895
-6.483 -8.279 1.808
-4.852 -6.781 1.948
-7.471 -9.350 1.895
-7.170 -9.050 1.874
-4.851 -6.782 1.952
-7.470 -9.324 1.870
-7.471 -9.350 1.895
-7.468 -9.333 1.882
-7.471 -9.350 1.895
-7.471 -9.350 1.895
-7.471 -9.350 1.895
-4.852 -6.777 1.944
-7.455 -9.429 1.986
-7.170 -9.050 1.874
-3.892 -5.845 1.978
-6.211 -8.207 1.997
-7.471 -9.351 1.895
-7.229 -9.447 2.230
-6.531 -8.763 2.233
-6.530 -8.758 2.227
-6.531 -8.764 2.234
-6.531 -8.763 2.233
-4.407 -6.921 2.533
-5.689 -6.748 1.062
-7.471 -9.350 1.895
-7.471 -9.350 1.894
-6.756 -9.001 2.250
-4.852 -6.778 1.945
-5.989 -6.593 0.613
-7.464 -9.314 1.866
-6.531 -8.764 2.234
-7.471 -9.350 1.895
-7.431 -9.382 1.960
-7.471 -9.353 1.898
-4.485 -5.165 0.699
-6.806 -9.017 2.218
-4.189 -6.410 2.236
-7.170 -9.050 1.874
-7.471 -9.335 1.880
-4.852 -6.778 1.945
-4.974 -6.366 1.413
-5.313 -6.533 1.234
-5.167 -8.055 2.904
-7.471 -9.350 1.895
-6.211 -8.207 1.998
-6.375 -8.550 2.181
-6.806 -9.012 2.213
-7.471 -9.350 1.895
-6.790 -9.055 2.270
-7.471 -9.350 1.895
-4.426 -6.475 2.069
-6.375 -8.551 2.182
-4.189 -6.409 2.236
-6.211 -8.207 1.997
-6.383 -9.008 2.627
-3.887 -5.576 1.711
-6.378 -8.950 2.570
-4.412 -6.957 2.566
-7.137 -9.469 2.320
-7.225 -9.061 1.830
-6.532 -8.763 2.231
-6.532 -8.762 2.230
-7.472 -9.350 1.893
-5.315 -6.532 1.231
-6.484 -8.280 1.809
-6.531 -8.763 2.233
-7.171 -9.048 1.870
-5.991 -6.594 0.611
-6.532 -8.762 2.230
-4.259 -5.679 1.441
-7.295 -9.594 2.285
-7.463 -9.309 1.860
-5.173 -8.056 2.901
-5.179 -6.536 1.371
-5.314 -6.529 1.230
-4.853 -6.785 1.951
-6.532 -8.763 2.231
-6.795 -8.992 2.200
-7.375 -9.328 1.967
-5.690 -6.749 1.061
-6.532 -8.763 2.231
-3.499 -4.814 1.342
-6.202 -8.176 1.971
-5.173 -8.058 2.903
-3.336 -5.185 1.720
-5.991 -6.594 0.611
-7.472 -9.350 1.894
-7.171 -9.048 1.871
-6.532 -8.762 2.231
-5.067 -6.624 1.559
-3.745 -5.162 1.443
-6.350 -8.534 2.188
-6.533 -8.762 2.230
-7.424 -9.235 1.822
-3.883 -5.827 1.969
-6.533 -8.763 2.230
-6.376 -8.551 2.180
-4.804 -6.013 1.224
-4.791 -7.886 3.107
-4.854 -6.776 1.941
-5.368 -6.528 1.170
-5.317 -6.537 1.235
-6.533 -8.762 2.229
-5.938 -7.907 1.980
-4.354 -6.604 2.247
-7.295 -9.594 2.285
-5.993 -6.593 0.609
-6.788 -9.017 2.236
-3.720 -5.170 1.472
-6.213 -8.206 1.994
-5.691 -6.742 1.053
-7.279 -9.595 2.303
-3.504 -4.813 1.337
-5.742 -8.125 2.395
-7.472 -9.350 1.894
-4.975 -6.633 1.659
-5.138 -6.389 1.271
-6.533 -8.762 2.230
-7.472 -9.350 1.894
-6.431 -8.659 2.234
-3.272 -4.395 1.147
-6.213 -8.206 1.994
-7.447 -9.258 1.824
-6.143 -8.827 2.693
-7.472 -9.350 1.894
-5.276 -6.569 1.306
-5.318 -6.532 1.228
-6.807 -9.015 2.214
-5.318 -6.531 1.228
-6.532 -8.762 2.229
-7.172 -9.048 1.870
-5.096 -6.384 1.308
-5.993 -6.593 0.609
-7.172 -9.048 1.870
-4.700 -6.760 2.080
-7.472 -9.350 1.894
-7.440 -9.321 1.888
-6.788 -9.014 2.233
-5.374 -6.531 1.171
-7.409 -9.324 1.921
-5.301 -6.534 1.238
-7.472 -9.351 1.895
-5.691 -6.741 1.052
-4.064 -6.132 2.064
-6.213 -8.206 1.994
-5.691 -6.743 1.055
-6.213 -8.206 1.994
-6.213 -8.206 1.994
-7.470 -9.339 1.881
-6.533 -8.763 2.231
-7.470 -9.376 1.921
-5.173 -8.056 2.901
-6.533 -8.762 2.230
-5.993 -6.593 0.609
-4.045 -5.768 1.738
-4.995 -6.406 1.430
-4.982 -6.423 1.453
-7.472 -9.349 1.893
-6.403 -9.110 2.706
-5.067 -6.624 1.558
-6.147 -8.003 1.855
-4.478 -6.203 1.742
-5.362 -7.317 1.962
-6.531 -8.759 2.229
-7.470 -9.349 1.894
-6.531 -8.759 2.228
-5.156 -6.491 1.350
-5.991 -6.594 0.611
-5.690 -6.743 1.055
-5.690 -6.746 1.058
-5.691 -6.743 1.055
-7.470 -9.349 1.894
-5.991 -6.594 0.611
-3.410 -4.534 1.150
-6.216 -8.198 1.983
-7.470 -9.349 1.894
-6.414 -9.119 2.704
-3.592 -5.029 1.459
-7.237 -9.506 2.283
-7.470 -9.349 1.894
-6.350 -8.548 2.204
-6.349 -8.828 2.485
-7.470 -9.349 1.894
-5.315 -6.529 1.229
-7.395 -9.391 2.007
-3.744 -5.160 1.441
-5.376 -6.529 1.167
-6.787 -9.016 2.235
-4.791 -7.886 3.105
-3.259 -4.466 1.222
-5.315 -6.531 1.230
-6.531 -8.759 2.228
-7.470 -9.346 1.892
-6.375 -8.552 2.183
-5.419 -7.133 1.727
-7.461 -9.277 1.831
-7.469 -9.335 1.882
-7.468 -9.355 1.904
-5.691 -6.744 1.055
-7.273 -9.602 2.312
-7.440 -9.446 1.999
-6.531 -8.758 2.228
-7.202 -9.030 1.821
-6.375 -8.551 2.182
-4.945 -8.442 3.504
-5.690 -6.750 1.062
-6.531 -8.763 2.233
-6.528 -8.764 2.239
-6.402 -9.101 2.698
-5.377 -6.531 1.169
-5.377 -6.531 1.168
-4.975 -6.632 1.658
-3.912 -5.873 1.986
-6.806 -9.016 2.216
-5.551 -8.027 2.479
-5.317 -6.532 1.230
-6.561 -8.763 2.202
-4.952 -8.498 3.554
-3.745 -5.162 1.443
-7.378 -9.295 1.933
-5.318 -6.532 1.228
-5.182 -6.531 1.363
-4.133 -5.940 1.822
-7.472 -9.350 1.894
-6.143 -8.827 2.693
-4.791 -7.887 3.107
-4.854 -6.778 1.943
-7.472 -9.350 1.894
-7.471 -9.339 1.884
-5.052 -6.299 1.265
-6.213 -8.206 1.994
-4.854 -6.778 1.943
-5.317 -6.527 1.225
-4.975 -6.630 1.655
-7.472 -9.350 1.894
-3.260 -4.467 1.223
-4.265 -5.687 1.443
-6.191 -8.189 2.005
-3.504 -4.813 1.337
-4.213 -7.111 2.909
-4.430 -6.484 2.075
-7.172 -9.048 1.870
-7.466 -9.354 1.902
-5.180 -6.545 1.380
-4.415 -6.943 2.548
-4.975 -6.630 1.656
-3.723 -5.158 1.461
-5.318 -6.532 1.228
-5.690 -6.746 1.058
-4.213 -7.110 2.909
-5.175 -6.535 1.376
-7.472 -9.345 1.888
-7.460 -9.315 1.873
-4.903 -6.016 1.135
-6.213 -8.206 1.994
-6.053 -7.965 1.909
-5.365 -6.538 1.187
-6.807 -9.011 2.210
-6.484 -8.278 1.807
-7.414 -9.399 1.999
-4.192 -6.410 2.233
-4.975 -6.633 1.659
-5.173 -8.058 2.903
-7.472 -9.350 1.894
-4.946 -8.504 3.565
-6.533 -8.763 2.231
-4.975 -6.632 1.657
-7.172 -9.048 1.870
-5.221 -6.531 1.323
-3.258 -4.462 1.219
-4.975 -6.627 1.652
-5.691 -6.748 1.059
-5.373 -6.518 1.160
-5.316 -6.542 1.240
-6.533 -8.762 2.230
-7.472 -9.358 1.902
-7.471 -9.349 1.893
-4.213 -7.110 2.909
-4.921 -6.068 1.169
-4.965 -6.635 1.672
-5.380 -6.530 1.165
-4.854 -6.779 1.944
-7.232 -9.515 2.302
-7.352 -9.386 2.053
-5.318 -6.532 1.228
-4.975 -6.632 1.658
-4.921 -6.067 1.168
-6.295 -8.343 2.049
-7.472 -9.350 1.894
-4.975 -6.631 1.656
-4.791 -7.888 3.108
-7.359 -9.394 2.026
-4.854 -6.782 1.947
-3.723 -5.155 1.458
-7.466 -9.316 1.864
-6.202 -8.196 1.999
-6.430 -8.653 2.228
-4.970 -6.633 1.663
-3.409 -4.992 1.607
-7.470 -9.335 1.881
-5.377 -6.518 1.155
-5.068 -6.619 1.552
-6.213 -8.212 2.000
-7.304 -9.333 2.049
-5.993 -6.593 0.609
-7.471 -9.323 1.868
-5.316 -6.530 1.229
-6.533 -8.762 2.230
-5.317 -6.532 1.230
-5.317 -6.532 1.230
-4.949 -6.635 1.687
-3.544 -4.852 1.329
-6.878 -8.853 1.980
-6.348 -8.828 2.486
-5.993 -6.593 0.609
-7.472 -9.350 1.894
-6.497 -8.449 1.952
-4.854 -6.782 1.947
-6.533 -8.762 2.230
-6.532 -8.764 2.233
-7.472 -9.350 1.894
-5.228 -6.570 1.355
-3.935 -5.838 1.926
-7.471 -9.349 1.893
-6.351 -8.549 2.204
-4.932 -6.619 1.688
-4.262 -5.691 1.449
-5.234 -6.386 1.172
-7.472 -9.350 1.894
-5.009 -6.371 1.371
-5.034 -6.310 1.296
-5.151 -6.366 1.233
-7.472 -9.350 1.894
-4.973 -6.619 1.646
-6.786 -8.998 2.216
-7.279 -9.595 2.303
-6.533 -8.762 2.230
-5.138 -6.390 1.272
-5.067 -6.623 1.557
-6.212 -8.209 1.998
-5.066 -6.635 1.569
-4.229 -5.841 1.631
-6.431 -8.676 2.250
-5.067 -6.625 1.559
-7.299 -9.649 2.343
-4.974 -6.638 1.665
-4.924 -5.188 0.289
-5.317 -6.532 1.230
-4.016 -5.816 1.814
-7.133 -9.327 2.205
-3.724 -5.157 1.459
-6.213 -8.206 1.994
-7.282 -9.433 2.170
-5.317 -6.531 1.229
-7.295 -9.595 2.286
-6.042 -8.253 2.205
-4.346 -6.057 1.732
-6.532 -8.762 2.230
-5.067 -6.625 1.560
-6.213 -8.206 1.994
-5.317 -6.531 1.229
-5.314 -6.535 1.235
-6.213 -8.206 1.994
-7.229 -9.617 2.370
-5.932 -8.146 2.228
-6.213 -8.206 1.994
-5.032 -6.575 1.547
-7.409 -9.342 1.943
-5.079 -6.364 1.301
-4.351 -6.061 1.730
-7.254 -9.529 2.293
-5.996 -6.596 0.608
-5.315 -6.532 1.232
-5.066 -6.627 1.563
-6.213 -8.206 1.994
-5.691 -6.744 1.055
-4.930 -6.650 1.720
-5.993 -6.593 0.609
-3.421 -4.632 1.233
-7.464 -9.405 1.957
-4.429 -6.487 2.078
-6.213 -8.206 1.994
-5.317 -6.533 1.231
-6.143 -8.827 2.692
-7.329 -9.615 2.300
-6.543 -8.358 1.797
-5.317 -6.531 1.229
-5.378 -6.528 1.165
-6.807 -9.014 2.213
-5.317 -6.532 1.230
-4.981 -6.292 1.333
-4.854 -6.778 1.943
-4.974 -6.633 1.660
-5.317 -6.531 1.228
-5.317 -6.531 1.229
-6.376 -8.549 2.179
-6.213 -8.206 1.994
-4.921 -6.068 1.168
-4.854 -6.778 1.943
-4.799 -5.966 1.183
-3.405 -4.550 1.171
-5.125 -6.287 1.177
-6.213 -8.205 1.993
-3.257 -4.458 1.215
-5.175 -6.502 1.342
-5.222 -6.529 1.321
-4.974 -6.633 1.660
-5.317 -6.532 1.230
-4.850 -6.800 1.966
-6.213 -8.206 1.994
-5.173 -8.055 2.900
-4.974 -6.633 1.660
-6.351 -8.549 2.204
-7.414 -9.269 1.863
-6.806 -9.032 2.230
-5.314 -6.540 1.240
-3.994 -5.838 1.868
-6.533 -8.762 2.230
-5.317 -6.532 1.230
-7.172 -9.048 1.870
-3.953 -5.995 1.956
-3.669 -5.503 1.855
-5.124 -6.374 1.268
-5.067 -6.624 1.558
-4.459 -6.569 2.113
-7.469 -9.370 1.917
-4.394 -6.907 2.530
-5.181 -6.535 1.368
-5.373 -6.513 1.154
-4.213 -7.110 2.909
-4.191 -6.411 2.235
-6.533 -8.761 2.228
-5.317 -6.532 1.230
-5.315 -6.534 1.234
-5.222 -6.529 1.321
-5.222 -6.530 1.322
-5.371 -6.524 1.170
-4.698 -6.759 2.082
-5.310 -6.528 1.229
-7.089 -9.347 2.273
-5.053 -6.341 1.308
-5.317 -6.532 1.230
-5.317 -6.532 1.230
-7.287 -9.647 2.354
-4.540 -5.785 1.260
-4.791 -7.886 3.107
-7.345 -9.610 2.278
-7.472 -9.351 1.895
-6.825 -8.619 1.800
-7.329 -9.615 2.300
-3.472 -4.712 1.264
-5.317 -6.530 1.228
-5.059 -7.522 2.477
-5.317 -6.529 1.227
-5.317 -6.529 1.227
-5.085 -6.390 1.324
-7.471 -9.350 1.895
-5.317 -6.529 1.227
-5.067 -6.618 1.552
-7.470 -9.349 1.894
-7.470 -9.350 1.896
-7.329 -9.615 2.301
-5.205 -6.407 1.210
-4.974 -6.623 1.650
-7.469 -9.339 1.885
-5.644 -7.686 2.010
-6.375 -8.546 2.177
-4.059 -7.091 3.037
-7.155 -9.307 2.165
-4.974 -6.621 1.648
-6.710 -8.699 1.980
-7.296 -9.593 2.285
-4.410 -6.904 2.513
-5.219 -6.525 1.320
-4.288 -6.457 2.168
-4.350 -6.036 1.707
-5.318 -6.527 1.224
-5.991 -6.593 0.611
-3.503 -4.813 1.337
-4.347 -6.044 1.717
-3.681 -6.322 2.651
-6.652 -9.127 2.475
-5.376 -6.529 1.167
-6.994 -9.328 2.312
-7.473 -9.350 1.892
-4.881 -5.503 0.651
-6.787 -9.017 2.237
-5.251 -8.050 2.816
-5.065 -6.622 1.558
-5.065 -6.624 1.560
-7.469 -9.351 1.897
-4.692 -6.751 2.079
-5.313 -6.531 1.233
-7.466 -9.339 1.889
-5.313 -6.532 1.233
-5.989 -6.593 0.612
-5.161 -6.556 1.410
-4.962 -6.652 1.689
-4.966 -6.632 1.665
-4.773 -7.854 3.092
-5.313 -6.533 1.234
-6.788 -9.017 2.236
-5.065 -6.625 1.561
-4.212 -7.111 2.910
-5.060 -6.322 1.278
-4.335 -5.955 1.642
-7.469 -9.351 1.897
-6.211 -8.207 1.998
-5.178 -6.535 1.371
-5.372 -6.522 1.165
-7.256 -9.520 2.277
-5.372 -6.527 1.167
-5.311 -6.536 1.239
-5.374 -6.524 1.164
-5.065 -6.623 1.559
-5.178 -6.532 1.369
-5.309 -6.524 1.229
-3.803 -5.657 1.873
-5.313 -6.533 1.235
-4.181 -5.634 1.463
-7.469 -9.351 1.897
-5.313 -6.534 1.236
-5.313 -6.532 1.233
-4.804 -6.029 1.240
-6.531 -8.764 2.233
-7.485 -9.352 1.879
-6.351 -8.551 2.207
-6.091 -8.110 2.015
-3.627 -5.415 1.807
-7.470 -9.351 1.896
-5.315 -6.532 1.232
-4.854 -6.777 1.942
-5.229 -6.378 1.167
-7.171 -9.050 1.872
-4.349 -6.060 1.731
-5.124 -8.053 2.945
-5.315 -6.526 1.225
-4.492 -7.020 2.469
-5.315 -6.531 1.231
-6.212 -8.206 1.995
-4.430 -6.484 2.075
-5.066 -6.625 1.561
-5.377 -6.530 1.168
-5.066 -6.627 1.562
-7.470 -9.350 1.895
-4.926 -5.206 0.305
-4.854 -6.777 1.942
-5.377 -6.529 1.167
-5.305 -6.554 1.262
-4.973 -6.632 1.660
-5.219 -6.529 1.324
-4.949 -8.483 3.543
-4.973 -6.632 1.660
-5.315 -6.533 1.232
-4.628 -6.831 2.212
-4.083 -6.346 2.287
-4.789 -7.875 3.098
-5.374 -6.536 1.177
-7.470 -9.350 1.896
-5.045 -6.640 1.597
-5.122 -6.362 1.251
-5.136 -6.390 1.273
-5.315 -6.533 1.233
-4.461 -6.581 2.110
-5.066 -6.624 1.559
-6.376 -8.551 2.181
-4.498 -5.287 0.810
-5.067 -6.314 1.255
-5.178 -6.533 1.369
-7.470 -9.353 1.898
-5.297 -6.547 1.260
-5.377 -6.528 1.166
-7.470 -9.344 1.890
-5.315 -6.532 1.232
-5.066 -6.624 1.559
-4.193 -6.409 2.232
-6.195 -8.148 1.953
-5.991 -6.593 0.611
-5.688 -6.745 1.059
-5.378 -6.528 1.164
-5.317 -6.530 1.228
-5.220 -6.529 1.323
-6.532 -8.763 2.232
-5.346 -6.521 1.190
-5.317 -6.532 1.229
-7.189 -9.414 2.231
-5.376 -6.519 1.158
-3.724 -5.965 2.264
-3.746 -5.162 1.441
-7.278 -9.595 2.304
-5.172 -8.045 2.892
-6.532 -8.762 2.230
-4.789 -7.876 3.099
-5.689 -6.745 1.058
-6.212 -8.207 1.996
-3.895 -5.559 1.688
-6.212 -8.206 1.995
-7.469 -9.339 1.885
-4.353 -6.037 1.704
-5.317 -6.528 1.226
-5.317 -6.530 1.227
-5.297 -6.525 1.239
-7.278 -9.593 2.302
-4.999 -6.368 1.374
-4.882 -5.503 0.649
-4.865 -6.261 1.385
-5.067 -6.620 1.555
-5.991 -6.593 0.611
-5.136 -6.389 1.273
-4.894 -6.059 1.180
-5.052 -6.342 1.304
-5.179 -6.533 1.369
-3.262 -4.467 1.221
-7.269 -9.586 2.302
-5.991 -6.593 0.611
-4.999 -6.388 1.394
-5.219 -6.529 1.323
-4.854 -6.779 1.944
-4.973 -6.632 1.660
-6.532 -8.762 2.230
-7.278 -9.595 2.303
-5.219 -6.529 1.324
-4.801 -6.453 1.668
-5.179 -6.535 1.370
-4.386 -6.657 2.230
-4.430 -6.486 2.077
-4.973 -6.631 1.659
-4.699 -6.760 2.081
-5.136 -6.390 1.274
-7.171 -9.050 1.872
-3.913 -5.134 1.247
-5.693 -8.007 2.325
-4.430 -6.484 2.074
-4.929 -6.517 1.581
-5.376 -6.533 1.173
-5.374 -6.530 1.170
-3.896 -5.585 1.713
-4.789 -7.876 3.098
-5.377 -6.529 1.166
-7.452 -9.319 1.883
-4.854 -6.773 1.939
-5.377 -6.526 1.164
-4.995 -6.407 1.431
-7.246 -9.506 2.272
-5.145 -6.439 1.307
-5.377 -6.531 1.169
-5.219 -6.530 1.325
-5.179 -6.534 1.370
-7.470 -9.348 1.893
-5.372 -6.518 1.160
-3.260 -4.459 1.213
-3.030 -4.264 1.259
-4.789 -7.876 3.099
-4.424 -6.504 2.100
-4.972 -6.641 1.669
-5.348 -6.528 1.184
-4.078 -7.080 3.005
-5.179 -6.534 1.370
-7.277 -9.604 2.312
-5.374 -6.524 1.164
-7.278 -9.593 2.302
-5.315 -6.528 1.227
-4.854 -6.780 1.945
-5.313 -6.535 1.236
-5.361 -6.554 1.205
-4.698 -6.758 2.080
-5.219 -6.529 1.324
-5.179 -6.534 1.370
-6.212 -8.206 1.997
-6.532 -8.762 2.230
-7.470 -9.350 1.896
-5.315 -6.531 1.231
-5.065 -6.642 1.577
-5.356 -6.546 1.202
-5.232 -6.387 1.174
-4.854 -6.772 1.938
-7.470 -9.350 1.895
-5.136 -6.389 1.272
-7.470 -9.355 1.900
-5.315 -6.532 1.231
-5.131 -6.576 1.457
-4.882 -5.503 0.649
-5.067 -6.332 1.273
-5.304 -6.529 1.240
-4.259 -5.697 1.460
-5.219 -6.530 1.325
-5.311 -6.553 1.256
-4.785 -7.863 3.089
-5.309 -6.543 1.248
-4.789 -7.876 3.098
-5.219 -6.530 1.325
-4.949 -6.628 1.682
-4.313 -6.737 2.436
-5.179 -6.534 1.370
-6.784 -9.108 2.327
-4.430 -6.484 2.075
-5.219 -6.530 1.325
-5.312 -6.512 1.214
-4.789 -7.876 3.099
-6.212 -8.206 1.995
-4.245 -5.685 1.460
-4.265 -5.690 1.447
-5.146 -6.499 1.367
-6.530 -8.763 2.233
-5.380 -6.526 1.161
-6.825 -9.016 2.197
-4.249 -5.702 1.473
-4.424 -6.481 2.078
-5.294 -6.525 1.242
-5.067 -6.620 1.554
-5.179 -6.529 1.364
-5.174 -6.557 1.393
-4.266 -6.193 1.936
-4.973 -6.614 1.640
-4.780 -7.888 3.119
-4.267 -5.687 1.442
-5.317 -6.526 1.223
-5.167 -8.061 2.911
-5.219 -6.526 1.321
-5.179 -6.529 1.364
-4.974 -6.625 1.652
-5.300 -6.546 1.262
-4.208 -7.111 2.914
-5.026 -6.375 1.352
-3.403 -4.543 1.165
-3.739 -5.562 1.847
-6.350 -8.549 2.204
-5.067 -6.618 1.551
-3.741 -5.161 1.445
-7.459 -9.315 1.869
-3.888 -5.689 1.826
-5.282 -6.485 1.218
-5.052 -7.520 2.482
-4.805 -6.450 1.660
-5.178 -6.527 1.363
-4.974 -6.627 1.653
-4.954 -6.694 1.739
-5.067 -6.620 1.554
-5.219 -6.524 1.319
-5.318 -6.529 1.226
-5.219 -6.524 1.319
-7.470 -9.348 1.894
-5.067 -6.619 1.553
-4.688 -5.768 1.090
-7.170 -9.051 1.874
-4.789 -7.883 3.106
-5.318 -6.529 1.226
-5.358 -6.524 1.182
-7.279 -9.595 2.303
-4.976 -6.374 1.392
-5.067 -6.618 1.552
-3.864 -6.182 2.313
-5.315 -6.525 1.224
-3.702 -5.381 1.698
-7.464 -9.361 1.911
-3.491 -5.261 1.788
-5.142 -6.499 1.370
-3.696 -5.541 1.868
-5.229 -6.389 1.180
-4.966 -5.110 0.165
-7.466 -9.404 1.955
-4.974 -6.629 1.656
-5.118 -6.363 1.262
-5.380 -6.526 1.161
-5.179 -6.530 1.366
-5.136 -6.386 1.269
-3.707 -5.595 1.913
-5.273 -6.543 1.289
-7.466 -9.339 1.890
-5.318 -6.529 1.226
-5.072 -6.354 1.299
-5.317 -6.528 1.225
-4.848 -6.782 1.953
-5.376 -6.513 1.151
-4.602 -6.040 1.449
-3.741 -5.162 1.447
-5.615 -8.032 2.403
-5.219 -6.524 1.319
-7.329 -9.615 2.301
-7.470 -9.350 1.896
-4.923 -6.064 1.163
-5.306 -6.557 1.265
-3.891 -5.987 2.119
-4.189 -6.410 2.236
-3.830 -5.723 1.907
-5.196 -6.383 1.207
-3.257 -4.472 1.231
-4.611 -6.297 1.688
-4.848 -6.775 1.946
-4.855 -7.965 3.123
-4.264 -5.689 1.446
-6.211 -8.207 1.997
-5.179 -6.529 1.364
-7.470 -9.355 1.901
-5.352 -6.542 1.206
-5.219 -6.523 1.318
-5.121 -6.382 1.282
-4.897 -6.484 1.585
-3.700 -5.138 1.464
-5.219 -6.524 1.318
-3.406 -4.560 1.179
-4.678 -6.808 2.147
-4.946 -8.481 3.543
-5.067 -6.339 1.281
-3.028 -4.256 1.255
-5.027 -6.608 1.582
-5.364 -6.552 1.204
-5.377 -6.525 1.164
-3.659 -6.139 2.494
-3.741 -5.161 1.445
-5.039 -6.317 1.287
-7.219 -9.431 2.218
-4.688 -6.755 2.087
-4.974 -6.629 1.657
-3.887 -5.131 1.270
-6.608 -8.557 1.929
-5.373 -6.515 1.157
-4.972 -6.644 1.673
-7.272 -9.528 2.270
-4.443 -6.483 2.060
-5.327 -6.527 1.215
-5.160 -6.521 1.364
-4.077 -5.508 1.448
-5.219 -6.524 1.318
-3.418 -4.594 1.202
-5.027 -6.608 1.582
-7.288 -9.647 2.354
-5.166 -8.064 2.915
-5.219 -6.524 1.319
-4.264 -5.685 1.443
-5.318 -6.526 1.222
-5.380 -6.525 1.160
-5.374 -6.500 1.140
-4.770 -7.889 3.131
-3.741 -5.161 1.445
-5.318 -6.529 1.225
-5.318 -6.529 1.225
-6.806 -9.016 2.216
-5.100 -6.386 1.306
-5.143 -6.498 1.369
-5.219 -6.525 1.319
-6.236 -8.046 1.826
-4.974 -6.626 1.653
-3.933 -5.648 1.735
-7.212 -9.466 2.239
-4.805 -6.453 1.664
-4.208 -7.110 2.914
-4.970 -7.581 2.626
-4.770 -7.863 3.105
-6.273 -9.016 2.739
-6.206 -8.218 2.014
-3.401 -4.534 1.158
-6.192 -8.173 1.983
-5.010 -6.314 1.323
-4.848 -6.783 1.954
-7.470 -9.348 1.893
-4.974 -6.624 1.650
-4.848 -6.781 1.951
-5.063 -6.430 1.383
-6.613 -9.019 2.402
-4.015 -6.907 2.885
-3.028 -4.263 1.260
-5.136 -6.387 1.271
-5.311 -6.529 1.234
-3.741 -5.161 1.445
-5.219 -6.524 1.319
-4.848 -6.778 1.949
-5.380 -6.518 1.152
-4.780 -7.889 3.120
-4.800 -6.491 1.707
-4.424 -6.486 2.083
-5.380 -6.526 1.160
-5.129 -6.407 1.297
-3.402 -4.555 1.177
-5.179 -6.529 1.364
-4.693 -6.757 2.084
-5.305 -6.510 1.219
-5.327 -6.528 1.215
-6.211 -8.207 1.997
-4.424 -6.479 2.077
-4.349 -6.551 2.223
-5.027 -6.608 1.582
-5.318 -6.530 1.227
-4.925 -5.207 0.307
-4.424 -6.483 2.080
-4.073 -5.849 1.788
-6.211 -8.207 1.997
-5.136 -6.387 1.271
-3.742 -5.164 1.448
-3.891 -5.576 1.710
-6.522 -8.747 2.226
-7.335 -9.606 2.286
-5.395 -7.397 2.015
-5.136 -6.387 1.271
-5.948 -7.970 2.028
-6.211 -8.207 1.997
-3.405 -5.672 2.285
-5.027 -6.606 1.580
-5.136 -6.387 1.271
-3.741 -5.160 1.444
-5.027 -6.609 1.583
-4.848 -6.781 1.952
-4.084 -6.511 2.449
-4.925 -5.207 0.307
-4.992 -6.409 1.436
-3.403 -4.542 1.164
-4.118 -5.848 1.749
-5.292 -6.546 1.268
-4.118 -5.841 1.742
-3.699 -4.872 1.198
-6.340 -9.099 2.762
-4.966 -5.111 0.166
-5.094 -7.422 2.310
-4.691 -6.736 2.066
-3.159 -4.344 1.197
-4.803 -6.040 1.252
-4.801 -6.017 1.231
-3.403 -4.562 1.183
-5.325 -6.540 1.227
-6.211 -8.211 2.002
-3.795 -5.699 1.927
-4.796 -4.946 0.173
-3.403 -4.552 1.175
-5.153 -6.319 1.179
-5.129 -6.408 1.299
-5.244 -6.531 1.306
-4.923 -6.067 1.166
-5.143 -6.500 1.370
-4.575 -5.917 1.365
-5.167 -8.062 2.912
-3.741 -5.161 1.445
-3.407 -4.579 1.197
-4.252 -5.712 1.478
-4.948 -5.126 0.195
-4.575 -5.907 1.354
-6.211 -8.207 1.998
-5.036 -6.366 1.330
-4.263 -5.686 1.444
-4.854 -6.044 1.205
-4.977 -6.362 1.377
-2.995 -4.130 1.161
-7.274 -9.626 2.335
-4.208 -7.110 2.914
-5.100 -6.387 1.307
-5.318 -6.529 1.226
-5.178 -6.525 1.361
-4.638 -6.839 2.212
-5.196 -6.384 1.207
-4.690 -6.736 2.067
-3.654 -5.420 1.787
-3.404 -4.550 1.171
-5.000 -7.504 2.510
-5.097 -6.510 1.426
-3.887 -5.130 1.270
-4.802 -6.022 1.235
-5.167 -8.058 2.909
-5.011 -6.366 1.367
-4.468 -5.173 0.724
-4.067 -5.848 1.800
-3.719 -5.157 1.463
-3.741 -5.160 1.445
-4.923 -6.068 1.167
-5.327 -6.532 1.221
-3.405 -4.551 1.171
-4.424 -6.482 2.080
-3.741 -5.164 1.448
-5.063 -6.367 1.299
-4.974 -6.624 1.651
-4.264 -5.688 1.446
-4.724 -7.024 2.315
-7.288 -9.647 2.354
-7.417 -9.643 2.220
-6.350 -8.549 2.206
-7.283 -9.649 2.361
-7.283 -9.649 2.361
-7.417 -9.643 2.220
-7.283 -9.649 2.361
-6.350 -8.549 2.205
-6.350 -8.549 2.206
-7.417 -9.643 2.220
-7.295 -9.650 2.349
-7.417 -9.643 2.220
-7.271 -9.596 2.311
-7.417 -9.643 2.220
-6.350 -8.550 2.206
-6.686 -8.978 2.279
-6.791 -9.017 2.233
-6.350 -8.549 2.206
-6.791 -9.019 2.234
-6.375 -8.551 2.183
-6.375 -8.551 2.183
-6.350 -8.549 2.205
-7.283 -9.649 2.361
-6.375 -8.551 2.182
-7.417 -9.643 2.220
-7.283 -9.649 2.361
-6.791 -9.020 2.236
-7.283 -9.649 2.361
-7.283 -9.649 2.361
-6.791 -9.019 2.234
-7.283 -9.649 2.361
-7.288 -9.594 2.293
-7.323 -9.617 2.308
-7.295 -9.650 2.349
-7.283 -9.649 2.361
-7.295 -9.650 2.349
-6.375 -8.551 2.183
-7.271 -9.596 2.311
-7.271 -9.596 2.311
-7.323 -9.618 2.309
-6.810 -9.017 2.213
-7.403 -9.418 2.035
-6.791 -9.019 2.234
-7.324 -9.617 2.308
-6.791 -9.019 2.234
-7.283 -9.649 2.361
-7.271 -9.596 2.311
-6.810 -9.017 2.213
-7.283 -9.649 2.361
-6.810 -9.017 2.213
-6.791 -9.019 2.234
-7.295 -9.650 2.349
-6.791 -9.019 2.234
-7.283 -9.649 2.361
-6.791 -9.019 2.234
-6.791 -9.019 2.234
-6.791 -9.019 2.234
-6.375 -8.551 2.182
-6.810 -9.017 2.213
-7.283 -9.649 2.361
-6.791 -9.019 2.234
-7.417 -9.643 2.220
-7.323 -9.617 2.308
-6.791 -9.019 2.234
-6.810 -9.017 2.213
-7.283 -9.649 2.361
-7.283 -9.649 2.361
-7.283 -9.649 2.361
-6.375 -8.551 2.183
-7.323 -9.618 2.309
-6.810 -9.017 2.213
-6.791 -9.019 2.234
-6.791 -9.019 2.234
-6.791 -9.019 2.234
-6.810 -9.017 2.213
-7.271 -9.596 2.311
-7.271 -9.596 2.311
-7.288 -9.594 2.293
-6.791 -9.019 2.234
-6.791 -9.019 2.234
-7.488 -9.610 2.136
-7.283 -9.649 2.361
-7.283 -9.649 2.361
-6.810 -9.017 2.213
-7.125 -9.029 1.911
-7.283 -9.650 2.361
-7.323 -9.617 2.309
-6.792 -9.019 2.233
-6.792 -9.019 2.233
-7.271 -9.596 2.312
-7.417 -9.643 2.220
-7.323 -9.617 2.308
-7.323 -9.617 2.308
-6.791 -9.019 2.234
-7.469 -9.351 1.897
-7.283 -9.650 2.361
-7.283 -9.649 2.361
-7.125 -9.029 1.912
-6.792 -9.019 2.233
-4.815 -6.298 1.504
-6.792 -9.019 2.233
-6.792 -9.019 2.233
-7.283 -9.650 2.361
-6.792 -9.020 2.234
-6.792 -9.019 2.233
-7.323 -9.617 2.309
-6.792 -9.019 2.233
-7.287 -9.595 2.294
-7.283 -9.650 2.361
-6.792 -9.019 2.233
-6.792 -9.019 2.233
-6.792 -9.019 2.233
-7.125 -9.029 1.912
-7.271 -9.596 2.312
-7.323 -9.618 2.309
-7.283 -9.650 2.361
-7.271 -9.596 2.312
-6.792 -9.019 2.233
-6.792 -9.020 2.234
-6.792 -9.019 2.233
-6.812 -9.017 2.212
-7.271 -9.596 2.313
-7.323 -9.618 2.309
-7.271 -9.597 2.313
-7.271 -9.596 2.312
-7.283 -9.650 2.361
-6.829 -9.207 2.369
-7.077 -9.444 2.327
-6.792 -9.019 2.233
-7.287 -9.594 2.294
-6.348 -8.544 2.203
-7.283 -9.650 2.361
-5.839 -7.963 2.145
-7.271 -9.597 2.313
-6.350 -8.549 2.206
-6.792 -9.019 2.233
-7.323 -9.618 2.309
-7.271 -9.596 2.313
-7.283 -9.650 2.361
-6.812 -9.017 2.212
-4.816 -6.300 1.506
-7.271 -9.594 2.311
-7.271 -9.596 2.313
-6.792 -9.019 2.233
-7.271 -9.596 2.313
-6.792 -9.019 2.233
-7.271 -9.596 2.313
-6.792 -9.019 2.233
-7.323 -9.618 2.310
-7.283 -9.650 2.361
-7.283 -9.650 2.361
-7.323 -9.619 2.310
-7.323 -9.618 2.309
-7.271 -9.596 2.312
-7.271 -9.596 2.313
-6.792 -9.019 2.233
-6.812 -9.018 2.212
-6.350 -8.549 2.205
-7.323 -9.618 2.309
-6.812 -9.017 2.212
-7.283 -9.650 2.361
-7.323 -9.618 2.309
-6.792 -9.019 2.233
-7.271 -9.596 2.312
-6.812 -9.018 2.212
-7.323 -9.615 2.306
-7.323 -9.618 2.310
-6.792 -9.019 2.233
-7.283 -9.650 2.361
-7.256 -9.615 2.348
-6.792 -9.019 2.233
-7.323 -9.618 2.309
-7.271 -9.596 2.312
-7.271 -9.596 2.313
-4.576 -5.910 1.355
-7.323 -9.618 2.309
-7.271 -9.596 2.312
-5.561 -7.997 2.439
-4.567 -6.336 1.791
-7.271 -9.596 2.313
-7.271 -9.596 2.312
-6.792 -9.018 2.232
-7.271 -9.596 2.312
-6.792 -9.019 2.233
-7.469 -9.349 1.895
-7.323 -9.623 2.316
-7.210 -9.613 2.391
-7.271 -9.596 2.312
-6.350 -8.549 2.205
-7.323 -9.618 2.309
-6.792 -9.019 2.233
-6.792 -9.019 2.233
-7.283 -9.650 2.361
-6.792 -9.019 2.233
-5.927 -8.025 2.108
-7.271 -9.596 2.312
-7.271 -9.596 2.312
-6.135 -8.521 2.383
-7.283 -9.651 2.363
-7.283 -9.650 2.361
-7.283 -9.650 2.361
-7.271 -9.596 2.312
-7.323 -9.618 2.309
-7.271 -9.596 2.312
-6.792 -9.018 2.232
-6.792 -9.019 2.233
-6.792 -9.019 2.233
-7.271 -9.596 2.312
-6.792 -9.019 2.233
-7.323 -9.618 2.309
-7.323 -9.619 2.310
-5.178 -6.527 1.363
-6.792 -9.019 2.233
-7.323 -9.618 2.309
-7.323 -9.618 2.309
-6.792 -9.019 2.233
-6.812 -9.015 2.209
-6.792 -9.019 2.233
-7.323 -9.617 2.309
-4.987 -6.397 1.429
-7.323 -9.618 2.309
-7.271 -9.596 2.312
-7.271 -9.596 2.312
-7.271 -9.596 2.313
-6.792 -9.019 2.233
-6.792 -9.019 2.233
-7.271 -9.596 2.312
-7.271 -9.596 2.312
-7.323 -9.617 2.309
-6.792 -9.019 2.233
-6.786 -9.017 2.237
-7.288 -9.647 2.353
-6.786 -9.017 2.237
-6.208 -8.060 1.866
-7.306 -9.648 2.336
-7.288 -9.647 2.353