-8.889 -9.823 0.945
-8.889 -9.823 0.945
-8.889 -9.823 0.945
-8.889 -9.823 0.945
-8.889 -9.823 0.945
-8.889 -9.823 0.945
-8.423 -9.842 1.429
-8.634 -10.308 1.686
-8.909 -9.810 0.911
-8.909 -9.810 0.911
-8.909 -9.810 0.911
-8.909 -9.810 0.911
-8.485 -9.945 1.470
-8.909 -9.810 0.911
-8.633 -10.309 1.688
-9.282 -9.877 0.603
-8.909 -9.808 0.910
-8.485 -9.946 1.472
-9.247 -9.832 0.591
-8.485 -9.949 1.474
-8.910 -9.808 0.910
-8.422 -9.841 1.428
-8.634 -10.310 1.688
-9.799 -13.219 3.425
-8.633 -10.309 1.688
-9.247 -9.832 0.591
-8.909 -9.808 0.910
-9.247 -9.832 0.591
-9.799 -13.219 3.425
-8.909 -9.807 0.909
-8.909 -9.807 0.909
-8.633 -10.309 1.688
-9.247 -9.832 0.591
-9.247 -9.832 0.591
-8.744 -11.174 2.438
-8.423 -9.841 1.428
-9.247 -9.832 0.591
-16.691 -7.893 -8.837
-8.746 -11.174 2.436
-9.092 -11.574 2.490
-8.910 -9.809 0.910
-9.248 -9.832 0.590
-9.248 -9.832 0.590
-9.248 -9.832 0.590
-9.248 -9.832 0.590
-9.248 -9.832 0.590
-9.343 -9.881 0.546
-9.248 -9.832 0.590
-8.910 -9.809 0.910
-9.799 -13.219 3.425
-9.248 -9.832 0.590
-9.248 -9.832 0.590
-9.343 -9.881 0.546
-8.588 -10.787 2.199
-8.588 -10.787 2.199
-9.248 -9.832 0.590
-8.588 -10.787 2.199
-8.423 -9.841 1.428
-9.248 -9.832 0.590
-8.826 -9.805 0.989
-8.826 -9.805 0.989
-8.746 -11.174 2.436
-9.307 -9.878 0.580
-7.981 -11.759 3.791
-9.092 -11.574 2.490
-9.284 -9.877 0.602
-9.307 -9.836 0.535
-9.284 -9.877 0.602
-8.588 -10.787 2.199
-9.248 -9.832 0.590
-9.284 -9.877 0.602
-9.307 -9.878 0.580
-9.092 -11.574 2.490
-9.307 -9.836 0.535
-8.746 -11.174 2.436
-9.284 -9.877 0.602
-9.248 -9.832 0.590
-9.248 -9.832 0.590
-9.248 -9.832 0.590
-9.248 -9.832 0.590
-8.588 -10.787 2.199
-9.284 -9.877 0.602
-8.581 -9.874 1.301
-8.633 -10.309 1.689
-9.307 -9.836 0.535
-9.307 -9.836 0.535
-9.799 -13.219 3.425
-8.423 -9.841 1.428
-9.799 -13.219 3.425
-9.307 -9.836 0.535
-9.284 -9.877 0.602
-8.910 -9.809 0.910
-9.284 -9.877 0.602
-8.910 -9.809 0.910
-9.307 -9.878 0.580
-9.248 -9.832 0.590
-9.307 -9.836 0.535
-8.746 -11.174 2.436
-9.284 -9.877 0.602
-9.248 -9.832 0.590
-8.826 -9.805 0.989
-9.248 -9.832 0.590
-8.910 -9.809 0.910
-8.746 -11.174 2.436
-9.092 -11.574 2.490
-9.799 -13.219 3.425
-8.746 -11.174 2.436
-8.423 -9.841 1.428
-9.248 -9.832 0.590
-8.746 -11.174 2.436
-8.796 -10.821 2.025
-16.773 -7.987 -8.831
-9.284 -9.877 0.601
-8.909 -9.809 0.912
-9.284 -9.877 0.601
-9.249 -9.832 0.589
-9.048 -9.810 0.773
-9.249 -9.832 0.589
-9.249 -9.832 0.589
-9.284 -9.877 0.601
-9.272 -9.833 0.567
-9.344 -9.880 0.545
-8.568 -10.795 2.226
-9.770 -13.227 3.462
-9.249 -9.832 0.589
-9.249 -9.832 0.589
-9.284 -9.877 0.601
-9.249 -9.832 0.589
-9.770 -13.203 3.438
-9.284 -9.877 0.601
-9.284 -9.877 0.601
-9.284 -9.877 0.601
-9.092 -11.573 2.489
-9.284 -9.877 0.601
-8.776 -10.828 2.052
-9.249 -9.832 0.589
-9.272 -9.833 0.567
-9.284 -9.877 0.601
-8.568 -10.795 2.226
-9.092 -11.573 2.489
-8.568 -10.795 2.226
-8.568 -10.795 2.226
-16.773 -7.987 -8.831
-9.284 -9.877 0.601
-9.092 -11.573 2.489
-9.092 -11.573 2.489
-8.746 -11.174 2.436
-9.272 -9.833 0.567
-9.092 -11.573 2.489
-9.284 -9.877 0.601
-9.344 -9.880 0.545
-8.776 -10.828 2.052
-9.249 -9.832 0.589
-9.308 -9.878 0.579
-9.284 -9.877 0.601
-8.860 -9.807 0.958
-9.249 -9.832 0.589
-9.272 -9.833 0.567
-9.092 -11.573 2.489
-8.776 -10.828 2.052
-9.284 -9.877 0.601
-8.450 -9.833 1.393
-8.776 -10.828 2.052
-8.825 -9.805 0.991
-9.249 -9.832 0.589
-8.510 -9.914 1.414
-8.776 -10.828 2.052
-8.746 -11.174 2.436
-9.092 -11.573 2.489
-8.825 -9.805 0.990
-8.860 -9.806 0.958
-8.568 -10.795 2.226
-8.568 -10.795 2.226
-9.092 -11.573 2.489
-9.092 -11.573 2.489
-8.510 -9.914 1.414
-8.860 -9.806 0.958
-8.746 -11.174 2.436
-9.092 -11.573 2.489
-9.308 -9.878 0.579
-9.092 -11.573 2.489
-8.776 -10.828 2.052
-9.249 -9.832 0.589
-9.308 -9.878 0.579
-8.510 -9.914 1.414
-8.510 -9.914 1.414
-9.092 -11.573 2.489
-9.272 -9.833 0.567
-9.284 -9.877 0.601
-8.776 -10.828 2.052
-8.776 -10.828 2.052
-8.776 -10.828 2.052
-8.776 -10.828 2.052
-8.860 -9.807 0.958
-8.825 -9.805 0.991
-8.860 -9.807 0.958
-8.776 -10.828 2.052
-8.825 -9.805 0.991
-8.825 -9.805 0.991
-8.406 -10.381 1.968
-9.272 -9.833 0.567
-8.746 -11.174 2.436
-8.860 -9.806 0.958
-8.860 -9.806 0.958
-8.860 -9.806 0.958
-8.253 -10.746 2.490
-8.731 -11.173 2.450
-8.855 -9.806 0.962
-8.754 -10.825 2.071
-8.754 -10.825 2.071
-9.768 -13.204 3.440
-8.754 -10.825 2.071
-8.820 -9.804 0.995
-9.304 -9.878 0.582
-8.907 -9.809 0.914
-9.304 -9.878 0.582
-9.304 -9.878 0.582
-9.304 -9.878 0.582
-9.245 -9.831 0.592
-8.754 -10.825 2.071
-8.855 -9.807 0.963
-8.855 -9.807 0.963
-8.855 -9.807 0.963
-9.280 -9.876 0.605
-8.754 -10.825 2.071
-9.245 -9.831 0.592
-8.500 -9.795 1.302
-9.078 -11.572 2.503
-8.754 -10.825 2.071
-8.754 -10.825 2.071
-9.268 -9.833 0.570
-8.855 -9.807 0.963
-9.304 -9.878 0.582
-9.280 -9.876 0.605
-9.245 -9.831 0.592
-9.280 -9.876 0.605
-9.304 -9.878 0.582
-9.078 -11.572 2.503
-9.268 -9.833 0.570
-8.806 -10.818 2.012
-8.494 -9.920 1.436
-9.033 -9.822 0.800
-8.727 -11.188 2.469
-8.727 -11.188 2.469
-8.727 -11.188 2.469
-9.235 -9.837 0.607
-9.270 -9.883 0.621
-9.072 -11.587 2.524
-8.845 -9.818 0.984
-7.974 -11.763 3.803
-8.845 -9.818 0.984
-8.845 -9.818 0.984
-8.811 -9.816 1.016
-8.845 -9.818 0.984
-9.797 -13.219 3.427
-8.797 -10.818 2.022
-9.072 -11.587 2.524
-9.330 -9.886 0.565
-8.494 -9.923 1.438
-8.807 -11.607 2.808
-9.258 -9.838 0.586
-9.294 -9.884 0.599
-9.768 -13.204 3.440
-8.797 -10.818 2.022
-9.330 -9.886 0.565
-8.589 -10.784 2.195
-9.235 -9.837 0.607
-9.294 -9.841 0.553
-9.072 -11.587 2.524
-8.727 -11.188 2.469
-8.845 -9.818 0.984
-9.294 -9.884 0.599
-9.294 -9.884 0.599
-8.807 -11.607 2.808
-8.434 -9.843 1.418
-9.258 -9.838 0.586
-9.258 -9.838 0.586
-9.072 -11.587 2.524
-9.294 -9.841 0.552
-16.681 -7.896 -8.825
-9.295 -9.884 0.598
-8.787 -10.824 2.036
-8.846 -9.820 0.985
-8.787 -10.823 2.036
-9.769 -13.228 3.463
-8.846 -9.819 0.984
-8.787 -10.825 2.038
-8.846 -9.819 0.984
-8.787 -10.823 2.036
-8.896 -9.822 0.937
-9.260 -9.838 0.585
-8.494 -9.923 1.439
-8.494 -9.922 1.438
-8.494 -9.922 1.438
-9.236 -9.837 0.606
-8.787 -10.823 2.036
-8.728 -11.188 2.468
-8.808 -11.607 2.807
-8.808 -11.607 2.807
-8.811 -9.818 1.017
-8.895 -9.822 0.938
-8.811 -9.818 1.017
-8.787 -10.823 2.036
-8.787 -10.823 2.036
-8.787 -10.823 2.036
-8.787 -10.823 2.036
-8.846 -9.819 0.984
-8.846 -9.819 0.984
-16.761 -7.989 -8.817
-16.761 -7.989 -8.817
-8.560 -10.797 2.237
-9.073 -11.587 2.522
-7.974 -11.763 3.802
-8.845 -9.819 0.985
-8.845 -9.819 0.985
-8.768 -10.830 2.063
-8.728 -11.188 2.467
-9.237 -9.837 0.605
-7.974 -11.763 3.802
-8.560 -10.797 2.237
-9.073 -11.587 2.522
-8.948 -10.805 1.859
-9.237 -9.837 0.605
-8.809 -9.819 1.021
-8.728 -11.188 2.468
-16.730 -7.990 -8.784
-8.809 -9.819 1.021
-8.562 -10.804 2.242
-8.771 -10.837 2.067
-8.728 -11.188 2.468
-8.562 -10.804 2.242
-8.491 -9.917 1.436
-8.843 -9.820 0.988
-16.730 -7.990 -8.785
-9.272 -9.882 0.619
-9.272 -9.882 0.619
-9.073 -11.587 2.523
-16.729 -7.990 -8.784
-8.491 -9.917 1.436
-8.728 -11.188 2.468
-8.809 -9.819 1.021
-9.237 -9.837 0.605
-9.260 -9.838 0.584
-9.073 -11.587 2.523
-8.770 -10.837 2.067
-8.491 -9.917 1.436
-8.491 -9.914 1.433
-9.332 -9.886 0.563
-9.237 -9.837 0.605
-9.797 -13.219 3.427
-9.797 -13.219 3.426
-9.073 -11.587 2.523
-8.843 -9.820 0.988
-8.728 -11.188 2.468
-8.843 -9.820 0.988
-8.843 -9.820 0.988
-8.247 -10.756 2.507
-8.838 -9.820 0.993
-8.927 -10.802 1.876
-8.927 -10.802 1.876
-8.838 -9.820 0.993
-9.292 -9.884 0.600
-8.803 -9.819 1.026
-9.292 -9.884 0.600
-9.233 -9.837 0.609
-9.058 -11.586 2.536
-9.766 -13.228 3.467
-16.649 -7.896 -8.794
-8.311 -11.178 2.875
-16.650 -7.896 -8.794
-8.713 -11.187 2.483
-8.804 -9.818 1.025
-8.795 -11.607 2.821
-9.267 -9.883 0.624
-9.058 -11.587 2.537
-8.839 -9.820 0.992
-8.484 -9.910 1.436
-8.484 -9.910 1.435
-8.839 -9.820 0.992
-8.557 -10.793 2.235
-8.839 -9.820 0.992
-9.766 -13.228 3.467
-9.267 -9.883 0.624
-8.713 -11.187 2.483
-8.713 -11.187 2.483
-9.058 -11.587 2.537
-9.058 -11.587 2.537
-8.839 -9.820 0.992
-9.291 -9.884 0.601
-8.839 -9.820 0.992
-8.839 -9.820 0.992
-8.804 -9.819 1.025
-9.267 -9.883 0.624
-8.839 -9.820 0.992
-8.839 -9.820 0.992
-8.839 -9.820 0.992
-8.713 -11.187 2.483
-8.839 -9.820 0.992
-9.232 -9.837 0.610
-9.058 -11.587 2.537
-9.058 -11.587 2.537
-9.291 -9.884 0.601
-9.058 -11.587 2.537
-9.267 -9.883 0.624
-9.232 -9.837 0.610
-8.767 -10.827 2.060
-9.267 -9.883 0.624
-9.232 -9.837 0.610
-8.767 -10.827 2.060
-8.767 -10.827 2.060
-8.713 -11.187 2.483
-8.839 -9.820 0.992
-8.839 -9.820 0.992
-8.713 -11.187 2.483
-8.839 -9.820 0.992
-8.839 -9.820 0.992
-8.839 -9.820 0.992
-8.267 -10.748 2.478
-9.267 -9.883 0.624
-8.839 -9.820 0.992
-8.804 -9.819 1.025
-8.767 -10.827 2.060
-8.795 -11.607 2.821
-8.839 -9.820 0.992
-9.330 -9.886 0.566
-8.713 -11.187 2.483
-9.267 -9.882 0.624
-9.256 -9.838 0.588
-9.766 -13.228 3.467
-9.766 -13.228 3.467
-8.767 -10.827 2.060
-8.839 -9.820 0.992
-9.291 -9.884 0.601
-8.767 -10.827 2.060
-8.949 -10.794 1.847
-8.839 -9.820 0.992
-8.795 -11.607 2.821
-8.839 -9.820 0.992
-8.767 -10.827 2.060
-8.767 -10.827 2.060
-8.839 -9.820 0.992
-8.557 -10.793 2.235
-8.557 -10.793 2.235
-8.557 -10.793 2.235
-9.291 -9.884 0.601
-8.267 -10.748 2.478
-9.232 -9.837 0.610
-9.232 -9.837 0.610
-9.058 -11.587 2.537
-8.713 -11.187 2.483
-8.839 -9.820 0.992
-9.291 -9.884 0.601
-8.839 -9.820 0.992
-8.839 -9.820 0.992
-9.058 -11.587 2.537
-8.767 -10.827 2.060
-8.839 -9.820 0.992
-9.058 -11.587 2.537
-8.795 -11.607 2.821
-9.267 -9.882 0.624
-9.267 -9.883 0.624
-9.330 -9.886 0.566
-9.256 -9.838 0.588
-9.256 -9.838 0.588
-9.256 -9.838 0.588
-8.839 -9.820 0.992
-9.058 -11.587 2.537
-8.874 -10.266 1.398
-8.311 -11.178 2.875
-8.874 -10.266 1.398
-8.804 -9.818 1.025
-8.949 -10.794 1.847
-9.291 -9.884 0.601
-9.795 -13.220 3.429
-9.267 -9.882 0.624
-8.767 -10.827 2.060
-9.058 -11.587 2.537
-9.072 -11.587 2.524
-9.270 -9.883 0.621
-8.845 -9.818 0.984
-8.494 -9.923 1.439
-8.855 -10.232 1.383
-8.797 -10.818 2.022
-8.275 -10.734 2.457
-8.486 -9.911 1.435
-8.486 -9.911 1.435
-8.712 -11.187 2.483
-8.712 -11.187 2.483
-9.290 -9.884 0.602
-8.840 -9.818 0.989
-8.565 -10.781 2.216
-9.057 -11.586 2.537
-8.486 -9.911 1.435
-9.266 -9.882 0.625
-9.057 -11.586 2.537
-9.266 -9.882 0.625
-9.255 -9.838 0.589
-9.766 -13.228 3.467
-9.057 -11.586 2.537
-8.775 -10.816 2.041
-9.266 -9.882 0.625
-8.712 -11.187 2.483
-9.027 -9.822 0.805
-9.057 -11.586 2.537
-8.712 -11.187 2.483
-7.960 -11.763 3.816
-9.266 -9.882 0.625
-8.892 -9.821 0.940
-16.760 -7.989 -8.815
-9.059 -11.586 2.535
-8.477 -10.793 2.314
-8.859 -10.266 1.413
-9.233 -9.836 0.609
-8.840 -9.820 0.991
-8.805 -9.818 1.024
-8.840 -9.820 0.991
-8.840 -9.820 0.991
-8.858 -10.266 1.413
-8.746 -10.828 2.082
-9.059 -11.586 2.535
-8.840 -9.819 0.990
-8.485 -9.907 1.432
-9.059 -11.586 2.535
-9.059 -11.586 2.535
-8.840 -9.819 0.990
-8.840 -9.819 0.990
-8.485 -9.907 1.432
-9.233 -9.836 0.609
-9.233 -9.836 0.609
-8.713 -11.187 2.481
-16.680 -7.896 -8.824
-8.713 -11.187 2.482
-8.765 -10.821 2.056
-8.841 -9.819 0.989
-9.059 -11.586 2.536
-16.760 -7.989 -8.816
-9.292 -9.884 0.600
-8.477 -10.793 2.314
-9.766 -13.228 3.467
-9.059 -11.586 2.535
-9.059 -11.586 2.535
-9.059 -11.586 2.535
-8.858 -10.266 1.413
-9.233 -9.836 0.609
-9.766 -13.228 3.467
-8.713 -11.187 2.481
-9.268 -9.882 0.622
-9.268 -9.882 0.622
-9.292 -9.884 0.600
-16.760 -7.989 -8.816
-16.760 -7.989 -8.816
-8.713 -11.187 2.481
-16.760 -7.989 -8.816
-9.059 -11.586 2.535
-16.760 -7.989 -8.816
-8.200 -10.355 2.150
-8.840 -9.819 0.990
-8.805 -9.818 1.023
-8.858 -10.266 1.413
-8.198 -10.332 2.127
-9.766 -13.228 3.467
-16.760 -7.989 -8.816
-8.840 -9.819 0.990
-16.680 -7.896 -8.824
-8.765 -10.821 2.056
-8.875 -10.264 1.395
-9.292 -9.884 0.601
-9.268 -9.882 0.623
-16.680 -7.896 -8.824
-16.680 -7.896 -8.824
-9.766 -13.228 3.467
-8.806 -9.817 1.022
-8.874 -10.264 1.395
-9.766 -13.228 3.467
-9.292 -9.884 0.601
-8.841 -9.819 0.989
-8.806 -9.818 1.022
-8.713 -11.187 2.482
-8.893 -9.822 0.940
-9.059 -11.586 2.536
-9.233 -9.837 0.610
-9.292 -9.884 0.601
-8.874 -10.264 1.395
-9.268 -9.882 0.623
-16.610 -7.934 -8.715
-8.763 -10.821 2.058
-8.832 -10.277 1.451
-8.796 -9.821 1.036
-8.559 -9.882 1.331
-16.702 -8.008 -8.738
-8.816 -10.280 1.470
-16.702 -8.008 -8.738
-8.533 -10.794 2.261
-8.533 -10.794 2.261
-9.556 -11.437 1.892
-9.556 -11.437 1.892
-9.556 -11.437 1.892
-9.982 -12.197 2.221
-9.584 -11.427 1.854
-9.584 -11.427 1.854
-9.586 -11.479 1.901
-9.982 -12.197 2.221
-9.954 -12.079 2.132
-9.954 -12.079 2.132
-9.586 -11.479 1.901
-9.586 -11.479 1.901
-9.586 -11.479 1.901
-9.586 -11.479 1.901
-9.524 -11.492 1.976
-9.982 -12.197 2.221
-9.954 -12.079 2.132
-9.584 -11.427 1.854
-9.584 -11.427 1.854
-10.254 -12.120 1.872
-10.098 -12.137 2.045
-10.098 -12.137 2.045
-9.671 -11.358 1.701
-9.654 -11.453 1.808
-9.671 -11.358 1.701
-9.654 -11.453 1.808
-10.098 -12.137 2.045
-10.070 -12.023 1.960
-10.098 -12.137 2.045
-9.671 -11.358 1.701
-9.631 -11.208 1.586
-10.098 -12.137 2.045
-9.597 -11.468 1.879
-10.070 -12.023 1.960
-10.070 -12.023 1.960
-10.070 -12.023 1.960
-10.070 -12.023 1.960
-9.654 -11.453 1.808
-9.654 -11.453 1.808
-10.098 -12.137 2.045
-10.070 -12.023 1.960
-9.654 -11.453 1.808
-9.654 -11.453 1.808
-10.055 -12.010 1.961
-10.098 -12.137 2.046
-9.597 -11.468 1.879
-9.597 -11.468 1.879
-10.070 -12.023 1.960
-10.070 -12.023 1.960
-9.654 -11.453 1.808
-10.070 -12.023 1.960
-10.098 -12.137 2.046
-10.098 -12.137 2.046
-10.070 -12.023 1.960
-9.654 -11.453 1.808
-9.670 -11.358 1.701
-9.597 -11.468 1.879
-9.597 -11.468 1.879
-9.596 -11.412 1.827
-10.070 -12.023 1.960
-10.070 -12.023 1.960
-10.070 -12.023 1.960
-10.070 -12.023 1.960
-9.630 -11.208 1.586
-9.671 -11.358 1.701
-10.055 -12.010 1.961
-9.653 -11.454 1.809
-10.070 -12.023 1.960
-10.078 -12.128 2.057
-9.597 -11.468 1.879
-10.098 -12.137 2.046
-9.596 -11.412 1.827
-10.098 -12.137 2.046
-9.670 -11.358 1.701
-10.098 -12.137 2.046
-9.596 -11.412 1.827
-9.596 -11.412 1.827
-9.654 -11.453 1.808
-9.671 -11.358 1.701
-9.654 -11.453 1.808
-10.070 -12.023 1.960
-10.070 -12.023 1.960
-10.098 -12.137 2.046
-9.670 -11.358 1.701
-9.670 -11.358 1.702
-10.098 -12.137 2.046
-10.098 -12.137 2.046
-10.070 -12.023 1.960
-10.070 -12.023 1.960
-9.597 -11.468 1.879
-9.597 -11.468 1.879
-9.630 -11.208 1.586
-9.597 -11.468 1.879
-10.070 -12.023 1.960
-9.654 -11.453 1.808
-10.070 -12.023 1.960
-10.070 -12.023 1.960
-10.070 -12.023 1.960
-10.070 -12.023 1.960
-9.596 -11.412 1.827
-10.098 -12.137 2.046
-9.654 -11.453 1.808
-9.654 -11.453 1.808
-9.654 -11.453 1.808
-10.098 -12.137 2.046
-10.098 -12.137 2.046
-10.070 -12.023 1.960
-10.055 -12.010 1.961
-10.070 -12.023 1.960
-10.098 -12.137 2.046
-10.070 -12.023 1.960
-9.670 -11.358 1.701
-10.098 -12.137 2.046
-9.670 -11.358 1.701
-10.070 -12.023 1.960
-10.098 -12.137 2.046
-10.098 -12.137 2.046
-10.070 -12.023 1.960
-10.070 -12.023 1.960
-10.098 -12.137 2.046
-10.098 -12.137 2.046
-9.548 -11.235 1.695
-9.548 -11.235 1.695
-9.515 -11.439 1.935
-9.515 -11.439 1.935
-9.954 -12.079 2.132
-9.954 -12.079 2.132
-9.586 -11.479 1.901
-9.515 -11.439 1.935
-9.524 -11.492 1.976
-9.954 -12.079 2.132
-9.982 -12.197 2.221
-9.982 -12.197 2.221
-9.954 -12.079 2.132
-9.584 -11.427 1.854
-9.760 -11.344 1.599
-9.587 -11.413 1.837
-9.587 -11.413 1.837
-9.587 -11.413 1.837
-9.590 -11.469 1.888
-9.651 -11.454 1.811
-9.587 -11.413 1.837
-9.651 -11.454 1.811
-9.587 -11.413 1.837
-10.082 -12.134 2.059
-9.624 -11.209 1.593
-10.055 -12.020 1.972
-9.624 -11.209 1.593
-9.624 -11.209 1.593
-10.082 -12.134 2.059
-9.651 -11.454 1.812
-9.590 -11.469 1.888
-9.587 -11.413 1.837
-9.587 -11.413 1.837
-10.055 -12.020 1.973
-10.082 -12.134 2.059
-9.624 -11.209 1.593
-9.587 -11.413 1.837
-9.666 -11.358 1.706
-9.651 -11.454 1.811
-9.590 -11.469 1.888
-9.651 -11.454 1.811
-9.624 -11.209 1.593
-9.587 -11.413 1.837
-10.074 -12.023 1.957
-10.055 -12.020 1.972
-9.665 -11.358 1.706
-9.587 -11.413 1.837
-9.590 -11.469 1.888
-9.651 -11.454 1.811
-9.590 -11.469 1.888
-10.055 -12.020 1.972
-10.055 -12.020 1.973
-10.082 -12.134 2.059
-9.590 -11.469 1.888
-9.590 -11.469 1.888
-9.651 -11.454 1.811
-9.587 -11.413 1.837
-9.587 -11.413 1.837
-9.587 -11.413 1.837
-9.590 -11.469 1.888
-9.590 -11.469 1.888
-9.587 -11.413 1.837
-9.624 -11.209 1.593
-9.590 -11.469 1.888
-9.587 -11.413 1.837
-10.055 -12.020 1.972
-10.082 -12.134 2.059
-10.082 -12.134 2.059
-10.055 -12.020 1.973
-9.590 -11.469 1.888
-9.587 -11.413 1.837
-9.587 -11.413 1.837
-9.587 -11.413 1.837
-9.587 -11.413 1.837
-9.587 -11.413 1.837
-9.587 -11.413 1.837
-9.587 -11.413 1.837
-10.082 -12.134 2.059
-10.082 -12.134 2.059
-10.082 -12.134 2.059
-10.082 -12.134 2.059
-10.082 -12.134 2.059
-10.058 -12.008 1.957
-9.672 -11.357 1.698
-9.655 -11.453 1.806
-9.655 -11.453 1.806
-10.100 -12.135 2.042
-10.072 -12.021 1.956
-10.100 -12.135 2.042
-10.100 -12.135 2.042
-10.072 -12.021 1.956
-9.632 -11.207 1.583
-9.632 -11.207 1.583
-10.072 -12.021 1.956
-9.673 -11.357 1.698
-9.656 -11.453 1.806
-10.058 -12.008 1.957
-10.072 -12.021 1.956
-10.072 -12.021 1.956
-10.100 -12.135 2.042
-10.072 -12.021 1.956
-10.072 -12.021 1.956
-10.100 -12.135 2.042
-9.598 -11.411 1.824
-10.072 -12.021 1.956
-10.091 -12.024 1.941
-9.632 -11.207 1.583
-9.598 -11.411 1.824
-9.598 -11.411 1.824
-9.598 -11.411 1.824
-9.599 -11.467 1.877
-9.599 -11.467 1.877
-9.598 -11.411 1.824
-9.656 -11.453 1.805
-10.100 -12.135 2.042
-9.656 -11.453 1.806
-9.599 -11.467 1.877
-10.072 -12.021 1.956
-10.100 -12.135 2.042
-10.072 -12.021 1.956
-9.599 -11.467 1.877
-9.632 -11.207 1.583
-10.100 -12.135 2.042
-10.100 -12.135 2.042
-9.632 -11.207 1.583
-9.632 -11.207 1.583
-9.599 -11.467 1.877
-10.072 -12.021 1.956
-9.598 -11.411 1.824
-9.599 -11.467 1.877
-10.100 -12.135 2.042
-9.599 -11.467 1.877
-9.656 -11.453 1.805
-10.072 -12.021 1.956
-10.100 -12.135 2.042
-9.598 -11.411 1.824
-9.599 -11.467 1.877
-9.599 -11.467 1.877
-9.598 -11.411 1.824
-9.598 -11.411 1.824
-9.598 -11.411 1.824
-9.598 -11.411 1.824
-9.598 -11.411 1.824
-10.100 -12.135 2.042
-9.598 -11.411 1.824
-9.599 -11.467 1.877
-10.100 -12.135 2.042
-10.100 -12.135 2.042
-10.072 -12.021 1.956
-9.656 -11.453 1.806
-9.656 -11.453 1.806
-9.673 -11.357 1.698
-9.673 -11.357 1.698
-9.599 -11.467 1.877
-10.100 -12.135 2.042
-9.599 -11.467 1.877
-10.072 -12.021 1.956
-10.072 -12.021 1.956
-9.599 -11.467 1.877
-10.100 -12.135 2.042
-9.598 -11.411 1.824
-9.598 -11.411 1.824
-10.100 -12.135 2.042
-9.598 -11.411 1.824
-9.598 -11.411 1.824
-10.340 -11.547 1.213
-9.678 -11.355 1.691
-10.103 -12.135 2.038
-9.605 -11.465 1.869
-9.605 -11.465 1.869
-9.605 -11.465 1.869
-10.103 -12.135 2.038
-10.075 -12.020 1.952
-9.605 -11.465 1.869
-9.605 -11.465 1.869
-10.075 -12.020 1.952
-10.123 -12.137 2.020
-9.639 -11.206 1.575
-9.639 -11.206 1.575
-10.103 -12.135 2.038
-9.605 -11.465 1.869
-9.605 -11.465 1.869
-9.604 -11.409 1.816
-10.075 -12.020 1.952
-9.639 -11.206 1.575
-10.075 -12.020 1.952
-10.075 -12.020 1.952
-10.075 -12.020 1.952
-9.605 -11.465 1.869
-9.605 -11.465 1.869
-10.103 -12.135 2.038
-10.103 -12.135 2.038
-10.103 -12.135 2.038
-9.605 -11.465 1.869
-10.103 -12.135 2.038
-9.605 -11.465 1.869
-10.103 -12.135 2.038
-9.605 -11.465 1.869
-9.662 -11.451 1.797
-10.075 -12.020 1.952
-9.604 -11.409 1.816
-9.639 -11.206 1.575
-9.604 -11.409 1.816
-9.605 -11.465 1.869
-10.103 -12.135 2.038
-10.075 -12.020 1.952
-9.605 -11.465 1.869
-9.678 -11.355 1.691
-10.103 -12.135 2.038
-9.604 -11.409 1.816
-10.103 -12.135 2.038
-9.604 -11.409 1.816
-9.604 -11.409 1.816
-10.103 -12.135 2.038
-10.103 -12.135 2.038
-9.604 -11.409 1.816
-9.604 -11.409 1.816
-9.604 -11.409 1.816
-9.604 -11.409 1.816
-10.103 -12.135 2.038
-9.678 -11.355 1.691
-10.103 -12.135 2.038
-9.605 -11.465 1.869
-9.018 -11.100 2.098
-10.103 -12.135 2.038
-10.103 -12.135 2.038
-9.639 -11.206 1.575
-9.604 -11.409 1.816
-9.662 -11.451 1.797
-10.083 -12.126 2.049
-10.103 -12.135 2.038
-10.103 -12.135 2.038
-9.605 -11.465 1.869
-10.103 -12.135 2.038
-10.075 -12.020 1.952
-9.639 -11.206 1.575
-9.025 -11.099 2.090
-10.075 -12.020 1.952
-9.515 -11.439 1.935
-9.524 -11.492 1.976
-9.515 -11.439 1.935
-9.975 -12.189 2.220
-9.354 -11.511 2.170
-9.354 -11.511 2.170
-9.354 -11.511 2.170
-9.354 -11.511 2.170
-10.000 -12.198 2.204
-9.354 -11.511 2.170
-9.533 -11.491 1.966
-9.525 -11.438 1.924
-9.525 -11.438 1.924
-9.533 -11.491 1.966
-9.533 -11.491 1.966
-8.995 -11.104 2.126
-9.590 -11.425 1.847
-9.533 -11.491 1.966
-9.971 -12.080 2.116
-9.775 -11.342 1.582
-10.100 -12.135 2.042
-10.072 -12.021 1.956
-10.072 -12.021 1.956
-9.598 -11.411 1.824
-10.072 -12.021 1.956
-10.100 -12.135 2.042
-10.072 -12.021 1.956
-9.599 -11.467 1.877
-10.072 -12.021 1.956
-10.072 -12.021 1.956
-9.598 -11.411 1.824
-10.100 -12.135 2.042
-9.017 -11.100 2.100
-10.100 -12.135 2.042
-9.598 -11.411 1.824
-10.058 -12.008 1.957
-10.058 -12.008 1.957
-9.599 -11.467 1.877
-10.100 -12.136 2.042
-9.673 -11.357 1.698
-9.599 -11.467 1.877
-9.599 -11.467 1.877
-9.599 -11.467 1.877
-10.072 -12.021 1.956
-10.340 -11.546 1.213
-9.605 -11.465 1.869
-9.603 -11.409 1.816
-9.603 -11.409 1.816
-10.103 -12.135 2.038
-9.394 -11.494 2.113
-9.605 -11.465 1.869
-9.605 -11.465 1.869
-9.025 -11.099 2.090
-10.103 -12.135 2.038
-9.603 -11.409 1.816
-9.605 -11.465 1.869
-10.075 -12.020 1.952
-10.075 -12.020 1.952
-9.639 -11.206 1.575
-9.603 -11.409 1.816
-9.603 -11.409 1.816
-10.075 -12.020 1.952
-10.094 -12.023 1.936
-10.075 -12.020 1.952
-10.075 -12.020 1.952
-10.103 -12.135 2.038
-10.103 -12.135 2.038
-10.103 -12.135 2.038
-9.603 -11.409 1.816
-10.103 -12.135 2.038
-9.605 -11.465 1.869
-10.103 -12.135 2.038
-10.075 -12.020 1.952
-9.025 -11.099 2.090
-9.605 -11.465 1.869
-9.605 -11.465 1.869
-10.075 -12.020 1.952
-9.605 -11.465 1.869
-10.103 -12.135 2.038
-10.103 -12.135 2.038
-10.103 -12.135 2.038
-9.603 -11.409 1.816
-9.605 -11.465 1.869
-9.605 -11.465 1.869
-9.603 -11.409 1.816
-10.075 -12.020 1.952
-10.075 -12.020 1.952
-9.605 -11.465 1.869
-9.018 -11.100 2.098
-9.605 -11.465 1.869
-9.603 -11.409 1.816
-9.605 -11.465 1.869
-9.018 -11.100 2.098
-9.662 -11.451 1.797
-10.103 -12.135 2.038
-10.075 -12.020 1.952
-10.103 -12.135 2.038
-9.605 -11.465 1.869
-9.018 -11.100 2.098
-10.103 -12.135 2.038
-10.075 -12.020 1.952
-9.018 -11.100 2.098
-9.603 -11.409 1.816
-9.025 -11.099 2.090
-9.394 -11.498 2.117
-9.394 -11.498 2.117
-9.383 -11.498 2.128
-9.603 -11.409 1.817
-10.083 -12.126 2.049
-9.605 -11.465 1.869
-9.603 -11.409 1.816
-9.605 -11.465 1.869
-9.605 -11.465 1.869
-9.603 -11.409 1.816
-10.103 -12.135 2.038
-9.603 -11.409 1.816
-9.603 -11.409 1.816
-9.383 -11.497 2.127
-8.636 -11.322 2.698
-9.592 -11.470 1.886
-9.637 -11.207 1.579
-9.024 -11.100 2.092
-9.382 -11.498 2.129
-9.401 -11.498 2.110
-10.059 -12.008 1.956
-9.025 -11.099 2.091
-9.382 -11.498 2.129
-9.382 -11.498 2.129
-8.558 -11.235 2.688
-9.393 -11.498 2.119
-9.393 -11.498 2.119
-9.024 -11.100 2.092
-9.382 -11.498 2.129
-9.017 -11.100 2.099
-9.382 -11.498 2.129
-10.101 -12.135 2.041
-9.382 -11.498 2.129
-10.092 -12.024 1.939
-9.382 -11.498 2.129
-9.382 -11.498 2.129
-9.393 -11.498 2.119
-9.636 -11.207 1.579
-8.583 -11.211 2.638
-9.393 -11.499 2.119
-9.393 -11.498 2.119
-9.017 -11.100 2.099
-9.382 -11.498 2.130
-9.401 -11.498 2.110
-9.393 -11.498 2.119
-9.382 -11.498 2.129
-8.558 -11.235 2.689
-9.382 -11.498 2.129
-10.073 -12.021 1.955
-10.101 -12.135 2.041
-9.382 -11.498 2.129
-9.382 -11.498 2.129
-10.073 -12.021 1.955
-9.382 -11.498 2.129
-8.582 -11.211 2.639
-10.073 -12.021 1.955
-9.393 -11.498 2.118
-8.637 -11.323 2.697
-8.583 -11.211 2.638
-8.637 -11.323 2.697
-8.601 -11.561 2.973
-9.397 -11.497 2.112
-8.281 -11.136 2.867
-8.281 -11.136 2.867
-11.953 -11.574 -0.362
-11.197 -11.162 -0.024
-11.953 -11.574 -0.362
-11.936 -11.573 -0.346
-11.947 -11.573 -0.356
-11.947 -11.573 -0.356
-11.947 -11.573 -0.356
-11.947 -11.574 -0.356
-11.947 -11.573 -0.356
-11.947 -11.573 -0.356
-11.947 -11.573 -0.356
-11.947 -11.573 -0.356
-11.947 -11.574 -0.356
-11.961 -11.575 -0.369
-11.947 -11.573 -0.356
-11.947 -11.573 -0.356
-11.368 -11.192 -0.158
-11.947 -11.574 -0.357
-11.649 -11.415 -0.218
-11.947 -11.573 -0.357
-11.947 -11.573 -0.357
-11.947 -11.573 -0.357
-11.947 -11.573 -0.357
-11.198 -11.177 -0.009
-11.198 -11.177 -0.009
-11.947 -11.573 -0.357
-11.947 -11.573 -0.357
-11.936 -11.573 -0.346
-11.960 -11.575 -0.369
-11.947 -11.574 -0.356
-11.961 -11.575 -0.369
-11.947 -11.574 -0.356
-11.961 -11.575 -0.369
-11.961 -11.575 -0.369
-11.368 -11.192 -0.158
-9.277 -9.844 0.573
-11.962 -11.574 -0.371
-11.962 -11.574 -0.371
-11.948 -11.573 -0.359
-11.962 -11.574 -0.371
-11.948 -11.573 -0.359
-11.948 -11.573 -0.359
-11.398 -11.462 0.079
-11.962 -11.574 -0.372
-11.948 -11.573 -0.358
-11.948 -11.573 -0.358
-11.962 -11.574 -0.371
-11.962 -11.574 -0.371
-11.876 -11.564 -0.295
-11.962 -11.574 -0.371
-11.962 -11.574 -0.371
-11.977 -11.459 -0.500
-11.360 -11.175 -0.166
-11.895 -11.459 -0.419
-11.370 -11.325 -0.029
-11.908 -11.459 -0.432
-11.908 -11.459 -0.432
-11.908 -11.459 -0.432
-11.895 -11.459 -0.419
-11.884 -11.458 -0.409
-11.908 -11.460 -0.431
-11.204 -11.114 -0.079
-11.204 -11.114 -0.079
-11.204 -11.114 -0.079
-11.908 -11.460 -0.432
-11.884 -11.458 -0.409
-9.280 -9.843 0.569
-11.204 -11.114 -0.079
-9.280 -9.843 0.569
-11.388 -11.177 -0.193
-11.832 -11.497 -0.317
-11.368 -11.192 -0.158
-11.368 -11.192 -0.158
-11.961 -11.575 -0.369
-11.961 -11.575 -0.369
-11.738 -11.571 -0.151
-11.738 -11.571 -0.151
-11.947 -11.574 -0.357
-11.961 -11.575 -0.369
-11.947 -11.573 -0.357
-11.198 -11.177 -0.009
-11.398 -11.463 0.080
-9.279 -9.844 0.571
-11.948 -11.573 -0.358
-11.962 -11.574 -0.371
-11.948 -11.573 -0.358
-11.398 -11.462 0.079
-11.398 -11.462 0.079
-11.937 -11.572 -0.348
-11.398 -11.462 0.079
-11.398 -11.462 0.079
-11.398 -11.462 0.079
-11.740 -11.570 -0.153
-11.398 -11.462 0.079
-11.948 -11.573 -0.358
-11.368 -11.192 -0.158
-11.962 -11.574 -0.371
-11.164 -11.588 0.438
-9.279 -9.844 0.571
-9.279 -9.844 0.571
-11.962 -11.574 -0.371
-11.649 -11.415 -0.218
-11.398 -11.463 0.079
-11.740 -11.570 -0.153
-11.740 -11.570 -0.153
-11.740 -11.570 -0.153
-11.948 -11.573 -0.358
-11.198 -11.177 -0.009
-11.174 -11.178 0.015
-11.937 -11.572 -0.348
-11.398 -11.462 0.079
-11.740 -11.570 -0.153
-11.962 -11.574 -0.372
-11.962 -11.574 -0.372
-11.398 -11.462 0.079
-11.977 -11.459 -0.501
-11.370 -11.325 -0.029
-11.529 -11.331 -0.181
-9.315 -9.888 0.582
-11.977 -11.459 -0.501
-11.370 -11.325 -0.029
-11.415 -11.325 -0.073
-11.370 -11.325 -0.028
-11.415 -11.325 -0.073
-11.649 -11.415 -0.218
-11.948 -11.573 -0.359
-11.962 -11.574 -0.371
-11.962 -11.574 -0.371
-11.740 -11.570 -0.153
-11.164 -11.588 0.438
-11.937 -11.572 -0.348
-11.937 -11.572 -0.348
-11.164 -11.588 0.438
-11.164 -11.588 0.438
-11.962 -11.574 -0.371
-11.174 -11.177 0.015
-16.651 -8.025 -8.671
-9.316 -9.889 0.581
-11.966 -11.573 -0.376
-11.941 -11.571 -0.353
-11.743 -11.569 -0.158
-11.176 -11.177 0.013
-11.176 -11.177 0.013
-11.014 -11.588 0.588
-11.176 -11.177 0.013
-11.754 -11.565 -0.172
-11.941 -11.571 -0.353
-11.941 -11.571 -0.353
-11.650 -11.414 -0.220
-9.315 -9.889 0.582
-9.280 -9.844 0.570
-11.729 -11.573 -0.139
-11.399 -11.462 0.078
-11.941 -11.571 -0.353
-11.369 -11.192 -0.160
-11.724 -11.573 -0.135
-11.724 -11.573 -0.135
-11.966 -11.573 -0.376
-11.966 -11.573 -0.376
-11.966 -11.573 -0.376
-10.467 -11.174 0.719
-11.743 -11.569 -0.158
-11.941 -11.571 -0.353
-11.175 -11.177 0.014
-11.966 -11.573 -0.376
-10.933 -11.601 0.678
-9.317 -9.889 0.581
-11.966 -11.573 -0.376
-11.515 -11.468 -0.032
-11.941 -11.571 -0.353
-11.966 -11.573 -0.376
-11.176 -11.177 0.013
-9.317 -9.889 0.581
-11.176 -11.177 0.013
-11.754 -11.565 -0.172
-11.176 -11.177 0.013
-11.754 -11.565 -0.172
-11.650 -11.414 -0.220
-11.729 -11.573 -0.139
-11.650 -11.414 -0.220
-11.176 -11.177 0.013
-11.399 -11.462 0.078
-11.966 -11.573 -0.376
-9.281 -9.843 0.568
-11.966 -11.573 -0.376
-11.966 -11.573 -0.376
-11.941 -11.571 -0.353
-11.941 -11.571 -0.353
-11.941 -11.571 -0.353
-11.941 -11.571 -0.353
-11.743 -11.569 -0.157
-11.952 -11.572 -0.363
-11.650 -11.414 -0.220
-11.941 -11.571 -0.353
-11.176 -11.177 0.014
-11.952 -11.572 -0.363
-16.601 -7.939 -8.702
-9.316 -9.889 0.582
-11.747 -11.567 -0.163
-11.747 -11.567 -0.163
-11.939 -11.572 -0.350
-11.963 -11.574 -0.373
-11.650 -11.415 -0.219
-11.399 -11.462 0.079
-11.650 -11.415 -0.219
-11.939 -11.572 -0.350
-11.963 -11.574 -0.373
-11.939 -11.572 -0.350
-11.024 -11.593 0.583
-11.939 -11.572 -0.350
-11.369 -11.192 -0.159
-11.015 -11.596 0.595
-11.726 -11.418 -0.292
-11.939 -11.572 -0.350
-9.316 -9.889 0.582
-11.963 -11.574 -0.373
-11.445 -11.200 -0.228
-11.722 -11.574 -0.132
-11.175 -11.177 0.015
-11.012 -11.588 0.590
-11.399 -11.462 0.079
-11.165 -11.586 0.436
-11.175 -11.177 0.015
-11.939 -11.572 -0.350
-11.964 -11.574 -0.373
-11.964 -11.574 -0.373
-11.964 -11.574 -0.373
-11.939 -11.572 -0.350
-11.964 -11.574 -0.373
-11.006 -11.593 0.602
-11.175 -11.177 0.015
-11.175 -11.177 0.015
-11.752 -11.565 -0.170
-11.399 -11.462 0.079
-11.964 -11.573 -0.374
-11.650 -11.415 -0.219
-11.650 -11.415 -0.219
-8.819 -10.282 1.468
-11.012 -11.595 0.597
-11.726 -11.419 -0.291
-11.727 -11.573 -0.136
-10.426 -11.159 0.745
-11.013 -11.596 0.598
-11.399 -11.462 0.079
-11.030 -11.592 0.576
-11.650 -11.415 -0.219
-11.964 -11.574 -0.373
-11.964 -11.574 -0.373
-11.964 -11.574 -0.373
-11.939 -11.572 -0.350
-11.964 -11.574 -0.373
-11.006 -11.593 0.602
-11.175 -11.177 0.015
-11.399 -11.462 0.079
-11.939 -11.572 -0.350
-11.964 -11.574 -0.373
-11.964 -11.574 -0.373
-11.964 -11.574 -0.373
-11.964 -11.574 -0.373
-11.445 -11.200 -0.228
-11.722 -11.574 -0.132
-11.650 -11.415 -0.219
-11.399 -11.462 0.079
-11.939 -11.572 -0.350
-11.726 -11.418 -0.291
-11.964 -11.574 -0.373
-11.726 -11.418 -0.291
-11.726 -11.573 -0.136
-11.650 -11.415 -0.219
-11.650 -11.415 -0.219
-11.650 -11.415 -0.219
-11.010 -11.596 0.597
-11.964 -11.574 -0.373
-11.964 -11.574 -0.373
-11.964 -11.574 -0.373
-11.964 -11.574 -0.373
-11.964 -11.574 -0.373
-11.964 -11.574 -0.373
-8.874 -9.826 0.963
-11.964 -11.574 -0.373
-8.593 -9.259 0.680
-11.006 -11.593 0.602
-11.726 -11.418 -0.291
-7.965 -8.821 0.857
-7.965 -8.821 0.857
-11.399 -11.462 0.079
-11.446 -11.199 -0.228
-8.383 -8.801 0.422
-10.470 -11.178 0.719
-10.402 -11.178 0.788