-8.349 -8.770 0.372
-12.194 -3.872 -8.822
-12.250 -3.844 -8.906
-14.827 -7.629 -7.248
-7.451 -7.887 0.437
-14.845 -4.053 -10.988
-8.147 -6.844 -1.392
-7.098 -8.304 1.189
-8.225 -8.452 0.193
-6.738 -7.816 1.078
-7.918 -8.297 0.178
-8.440 -8.738 0.248
-12.058 -2.031 -10.492
-8.531 -8.755 0.179
-12.059 -2.031 -10.494
-7.527 -8.018 0.486
-8.440 -8.738 0.248
-11.044 -7.587 -3.505
-7.451 -7.887 0.437
-7.651 -8.341 0.666
-14.846 -4.053 -10.989
-8.225 -8.452 0.193
-7.450 -7.887 0.437
-8.147 -6.844 -1.392
-14.580 -8.072 -6.582
-8.440 -8.738 0.248
-7.517 -8.270 0.740
-8.497 -7.900 -0.679
-7.517 -8.270 0.740
-13.221 -3.666 -9.706
-15.796 -7.759 -8.075
-7.439 -7.888 0.450
-5.523 -6.403 0.855
-12.082 -8.833 -3.270
-7.447 -7.890 0.443
-6.624 -8.127 1.494
-6.673 -8.116 1.440
-7.516 -7.746 0.219
-12.211 -3.930 -8.774
-15.491 -7.697 -7.835
-14.495 -8.082 -6.498
-5.815 -7.184 1.370
-7.447 -7.890 0.443
-10.583 -6.642 -4.086
-6.362 -6.674 0.232
-6.569 -7.800 1.230
-9.064 -9.449 0.381
-6.787 -8.079 1.295
-10.445 -6.626 -3.955
-8.260 -8.628 0.367
-9.636 -6.632 -3.255
-7.383 -8.027 0.640
-7.723 -8.240 0.517
-7.958 -8.480 0.495
-9.064 -9.449 0.381
-6.667 -7.822 1.154
-9.655 -6.631 -3.278
-7.658 -8.378 0.704
-7.507 -8.028 0.515
-7.263 -8.346 1.069
-14.483 -8.082 -6.485
-7.420 -8.021 0.597
-7.082 -8.309 1.209
-15.730 -7.758 -8.011
-7.280 -6.819 -0.475
-15.441 -7.671 -7.811
-14.361 -8.071 -6.372
-15.627 -7.674 -7.994
-10.095 -6.534 -3.800
-10.782 -7.737 -3.090
-6.681 -7.961 1.281
-5.560 -6.878 1.311
-7.727 -8.236 0.509
-9.990 -3.039 -7.394
-10.781 -7.737 -3.089
-6.555 -7.764 1.211
-6.519 -8.121 1.598
-7.522 -8.027 0.500
-12.051 -8.829 -3.243
-13.283 -3.614 -9.822
-15.436 -7.670 -7.806
-8.135 -6.765 -1.462
-6.698 -7.817 1.119
-6.231 -7.834 1.604
-7.666 -8.399 0.734
-11.292 -8.326 -3.001
-7.096 -8.303 1.190
-7.473 -7.888 0.416
-6.231 -7.834 1.605
-6.991 -8.088 1.084
-6.578 -7.807 1.228
-7.203 -8.109 0.903
-14.551 -8.064 -6.572
-7.431 -8.024 0.589
-8.548 -7.907 -0.721
-7.548 -8.256 0.693
-8.631 -7.673 -1.138
-9.963 -3.052 -7.358
-9.320 -7.873 -1.458
-8.542 -5.322 -3.372
-9.692 -6.611 -3.335
-7.389 -8.031 0.639
-15.649 -7.745 -7.941
-15.435 -7.668 -7.812
-12.076 -8.419 -3.691
-7.164 -8.383 1.222
-11.081 -7.557 -3.572
-6.938 -7.973 1.035
-7.846 -8.427 0.564
-10.763 -6.624 -4.285
-8.177 -8.204 -0.147
-10.765 -6.624 -4.288
-7.105 -6.800 -0.323
-7.485 -7.887 0.403
-9.333 -7.868 -1.477
-10.535 -6.705 -4.216
-7.562 -8.092 0.509
-10.844 -6.616 -4.378
-10.703 -6.600 -4.244
-9.162 -8.218 -1.057
-9.336 -7.868 -1.480
-14.850 -4.051 -10.994
-10.147 -2.973 -7.612
-6.736 -7.808 1.072
-7.055 -7.979 0.926
-10.602 -6.778 -4.224
-6.238 -7.829 1.592
-7.669 -8.395 0.727
-14.636 -8.058 -6.654
-14.802 -4.071 -10.926
-6.904 -8.024 1.119
-14.650 -3.559 -11.194
-7.560 -8.019 0.454
-9.162 -8.218 -1.057
-9.162 -8.218 -1.057
-7.561 -8.019 0.454
-8.178 -8.204 -0.149
-14.638 -8.058 -6.656
-15.724 -7.724 -8.044
-5.910 -7.159 1.251
-9.319 -7.873 -1.458
-8.364 -8.825 0.415
-6.226 -7.834 1.609
-8.636 -7.660 -1.138
-15.942 -7.741 -8.243
-11.634 -8.236 -3.403
-12.090 -2.015 -10.543
-6.225 -7.833 1.609
-15.724 -7.724 -8.043
-14.641 -3.562 -11.183
-9.259 -8.021 -1.274
-7.481 -8.018 0.533
-11.087 -8.742 -2.353
-10.548 -6.780 -4.160
-8.045 -8.449 0.377
-12.322 -8.801 -3.555
-7.126 -8.308 1.167
-10.351 -6.893 -3.484
-6.708 -7.959 1.252
-7.163 -8.374 1.214
-9.162 -8.218 -1.057
-11.074 -7.560 -3.562
-9.261 -8.019 -1.278
-10.684 -6.602 -4.221
-10.700 -6.787 -4.315
-5.904 -7.337 1.435
-6.238 -7.829 1.592
-11.082 -7.571 -3.558
-6.238 -7.829 1.592
-10.200 -6.891 -3.335
-7.668 -8.395 0.727
-6.959 -8.022 1.045
-7.528 -7.746 0.206
-6.907 -7.970 1.065
-14.405 -3.594 -10.915
-10.017 -6.617 -3.662
-9.664 -6.525 -3.369
-14.336 -8.087 -6.335
-15.877 -7.734 -8.180
-9.154 -8.219 -1.049
-15.439 -7.672 -7.807
-6.379 -8.206 1.823
-9.774 -6.623 -3.385
-6.814 -7.906 1.089
-10.477 -6.813 -4.038
-10.519 -6.657 -3.998
-15.881 -7.734 -8.185
-10.478 -6.813 -4.039
-7.103 -6.799 -0.323
-7.439 -8.023 0.580
-7.203 -8.109 0.904
-9.710 -6.608 -3.357
-6.504 -8.126 1.618
-6.624 -7.964 1.342
-9.683 -2.664 -7.331
-10.490 -6.793 -4.086
-9.711 -6.608 -3.358
-10.731 -6.634 -4.242
-9.158 -8.220 -1.050
-6.436 -7.778 1.345
-10.182 -6.920 -3.285
-5.543 -6.401 0.834
-7.428 -8.024 0.592
-12.177 -3.941 -8.726
-11.292 -8.326 -3.002
-4.897 -7.436 2.539
-6.233 -7.831 1.599
-10.557 -6.574 -4.120
-14.057 -8.073 -6.044
-7.723 -8.241 0.518
-13.352 -8.093 -5.309
-8.958 -8.748 -0.256
-15.558 -7.748 -7.852
-7.555 -8.018 0.458
-9.281 -6.761 -2.617
-9.651 -6.763 -2.979
-7.279 -6.819 -0.474
-7.227 -8.438 1.201
-11.862 -8.812 -3.071
-9.261 -8.020 -1.278
-14.434 -8.064 -6.443
-7.147 -8.024 0.859
-15.929 -7.740 -8.231
-7.478 -8.018 0.537
-9.098 -7.059 -2.119
-11.996 -2.029 -10.440
-7.773 -8.232 0.459
-11.849 -8.802 -3.071
-6.594 -8.110 1.516
-7.050 -7.980 0.932
-7.161 -8.377 1.218
-11.735 -8.691 -3.050
-10.689 -6.788 -4.303
-6.959 -8.022 1.045
-11.860 -8.802 -3.083
-7.561 -8.019 0.454
-6.700 -7.966 1.267
-6.968 -8.239 1.273
-6.159 -7.448 1.291
-6.623 -7.965 1.344
-11.829 -8.804 -3.047
-14.623 -8.058 -6.641
-6.229 -7.833 1.605
-7.049 -7.916 0.867
-14.797 -4.072 -10.920
-6.419 -6.613 0.118
-12.267 -8.427 -3.869
-9.655 -6.591 -3.311
-10.237 -6.907 -3.353
-15.451 -7.665 -7.833
-10.498 -6.627 -4.000
-15.925 -7.741 -8.227
-14.624 -8.057 -6.642
-15.705 -7.724 -8.025
-6.880 -7.766 0.880
-14.788 -4.075 -10.908
-9.258 -8.021 -1.274
-10.638 -6.754 -4.305
-8.638 -8.767 0.084
-10.422 -6.919 -3.525
-11.048 -7.585 -3.511
-7.561 -8.019 0.453
-9.162 -8.218 -1.057
-6.518 -7.753 1.237
-9.162 -8.218 -1.057
-6.160 -7.450 1.290
-9.162 -8.218 -1.057
-6.729 -7.813 1.084
-10.589 -6.779 -4.209
-9.780 -2.908 -7.253
-14.848 -4.052 -10.991
-7.485 -7.887 0.402
-6.995 -8.083 1.076
-6.367 -7.758 1.394
-4.899 -7.436 2.537
-11.847 -8.802 -3.068
-10.863 -8.240 -2.635
-10.306 -6.899 -3.432
-15.452 -7.665 -7.834
-11.570 -8.216 -3.359
-6.979 -8.390 1.409
-10.528 -6.802 -4.103
-6.225 -7.833 1.610
-9.815 -6.970 -2.866
-5.130 -6.911 1.781
-7.668 -8.395 0.728
-6.843 -7.856 1.015
-11.874 -8.694 -3.188
-6.707 -7.960 1.254
-7.052 -7.979 0.930
-6.166 -7.172 0.998
-10.019 -6.597 -3.679
-6.629 -7.963 1.336
-14.630 -8.057 -6.648
-10.638 -6.642 -4.134
-15.713 -7.724 -8.033
-14.499 -7.189 -7.425
-7.003 -7.993 0.992
-9.858 -6.508 -3.584
-7.054 -7.979 0.928
-14.698 -3.538 -11.263
-7.562 -8.019 0.452
-6.234 -7.829 1.597
-15.201 -7.648 -7.599
-10.532 -6.802 -4.107
-14.644 -3.561 -11.186
-9.319 -7.873 -1.458
-8.152 -8.122 -0.091
-15.747 -7.723 -8.067
-14.655 -8.058 -6.673
-6.869 -7.984 1.112
-6.995 -8.021 1.007
-9.261 -8.019 -1.278
-14.854 -4.051 -10.998
-7.131 -8.303 1.157
-7.053 -7.979 0.929
-6.633 -8.105 1.472
-6.631 -7.963 1.334
-6.617 -8.141 1.523
-10.650 -6.521 -4.261
-5.968 -6.734 0.768
-11.082 -7.556 -3.575
-6.707 -7.909 1.201
-6.632 -7.962 1.333
-6.237 -7.829 1.593
-6.632 -7.962 1.333
-9.261 -8.019 -1.278
-14.855 -4.050 -11.000
-6.834 -7.888 1.049
-7.059 -7.916 0.857
-11.090 -7.567 -3.571
-9.261 -8.019 -1.278
-15.744 -7.723 -8.065
-9.158 -8.216 -1.056
-9.047 -7.991 -1.106
-9.680 -2.944 -7.115
-4.897 -7.436 2.539
-8.636 -7.661 -1.139
-6.954 -8.028 1.056
-7.483 -8.018 0.532
-11.865 -8.801 -3.085
-6.715 -7.848 1.133
-6.252 -7.207 0.947
-10.644 -6.605 -4.177
-7.483 -8.018 0.532
-10.662 -6.788 -4.271
-14.848 -4.053 -10.990
-11.081 -7.557 -3.573
-10.644 -6.605 -4.177
-11.004 -8.733 -2.278
-9.708 -6.742 -3.057
-8.715 -8.071 -0.675
-7.395 -8.291 0.895
-10.594 -6.778 -4.215
-10.348 -6.896 -3.480
-9.336 -7.868 -1.480
-7.500 -8.328 0.808
-7.051 -7.980 0.931
-8.273 -8.628 0.355
-7.376 -8.032 0.621
-7.729 -8.239 0.510
-6.660 -7.831 1.171
-6.659 -7.968 1.310
-6.747 -7.849 1.102
-6.842 -7.859 1.018
-6.039 -6.883 0.846
-10.727 -6.637 -4.236
-8.997 -8.727 -0.315
-8.769 -8.774 -0.038
-7.725 -8.237 0.511
-11.170 -8.714 -2.465
-7.839 -8.322 0.414
-7.473 -7.888 0.416
-9.570 -2.983 -6.970
-14.590 -4.128 -10.664
-6.528 -7.672 1.146
-11.005 -8.739 -2.273
-11.053 -8.778 -2.284
-6.140 -7.468 1.328
-6.941 -8.237 1.297
-6.591 -7.311 0.698
-10.525 -6.791 -4.129
-6.522 -7.664 1.143
-14.592 -4.127 -10.668
-6.628 -7.963 1.337
-13.281 -3.613 -9.821
-7.050 -7.982 0.935
-9.259 -8.020 -1.275
-8.633 -7.674 -1.141
-10.522 -6.791 -4.125
-6.379 -7.765 1.389
-9.057 -9.448 0.387
-10.502 -6.795 -4.099
-7.549 -8.256 0.692
-7.270 -8.334 1.050
-7.050 -7.982 0.935
-10.523 -6.791 -4.126
-6.520 -7.659 1.140
-7.050 -7.982 0.934
-14.558 -8.064 -6.580
-6.432 -7.594 1.163
-7.003 -7.994 0.993
-5.532 -7.037 1.507
-9.031 -7.993 -1.088
-9.216 -3.053 -7.170
-11.811 -2.076 -10.200
-15.601 -7.676 -7.966
-8.165 -8.356 0.097
-7.105 -6.799 -0.325
-8.865 -8.712 -0.199
-14.299 -3.627 -10.774
-7.849 -8.216 0.296
-13.152 -3.652 -9.650
-10.984 -6.616 -4.522
-5.817 -7.190 1.374
-7.451 -8.028 0.573
-6.273 -7.197 0.916
-10.596 -6.618 -4.115
-6.718 -8.390 1.660
-6.704 -7.851 1.142
-9.579 -2.968 -6.993
-7.153 -8.385 1.235
-6.551 -7.679 1.129
-9.157 -8.221 -1.048
-11.269 -8.729 -2.551
-6.626 -7.964 1.339
-6.488 -7.792 1.304
-11.027 -8.413 -2.630
-9.343 -6.740 -2.701
-10.280 -6.902 -3.403
-6.256 -7.447 1.192
-6.236 -7.829 1.594
-9.772 -6.594 -3.433
-5.980 -6.791 0.812
-6.157 -7.452 1.295
-14.836 -4.054 -10.977
-13.526 -6.085 -8.205
-8.342 -8.827 0.437
-6.258 -7.206 0.939
-9.163 -8.218 -1.058
-6.715 -7.851 1.130
-10.654 -6.523 -4.264
-7.055 -7.979 0.926
-10.654 -6.523 -4.264
-6.642 -7.962 1.322
-11.070 -7.566 -3.552
-6.803 -8.340 1.526
-7.917 -8.264 0.162
-10.934 -8.384 -2.560
-8.742 -8.263 -0.638
-6.644 -7.962 1.320
-6.474 -6.588 0.030
-7.396 -8.028 0.596
-6.006 -6.776 0.772
-11.912 -8.807 -3.131
-6.747 -7.806 1.059
-8.823 -9.149 0.284
-9.262 -8.019 -1.279
-11.893 -8.802 -3.118
-14.842 -4.051 -10.986
-9.828 -6.591 -3.497
-10.709 -6.601 -4.249
-14.692 -3.539 -11.257
-6.796 -8.214 1.161
-6.796 -8.102 1.307
-9.747 -2.949 -7.828
-9.163 -8.218 -1.058
-9.336 -7.868 -1.481
-7.917 -8.264 0.162
-7.668 -8.404 0.717
-10.707 -6.601 -4.247
-11.085 -8.374 -2.721
-9.509 -2.961 -7.587
-14.842 -4.051 -10.985
-7.059 -7.916 0.857
-5.428 -6.976 1.549
-9.262 -8.019 -1.279
-14.842 -4.051 -10.986
-13.589 -3.547 -10.196
-6.635 -7.962 1.328
-8.717 -8.070 -0.677
-8.646 -7.660 -1.154
-6.536 -7.649 1.114
-6.230 -7.834 1.605
-6.534 -7.754 1.222
-7.531 -8.018 0.483
-6.715 -7.852 1.131
-13.580 -3.550 -10.184
-6.715 -7.852 1.131
-8.822 -9.149 0.284
-6.623 -7.965 1.344
-8.038 -8.463 0.400
-7.916 -8.265 0.163
-8.823 -9.150 0.285
-9.163 -8.218 -1.058
-10.587 -6.779 -4.206
-5.912 -7.498 1.588
-10.701 -6.787 -4.317
-6.099 -6.963 0.865
-9.741 -6.509 -3.462
-6.537 -8.476 1.939
-8.342 -8.824 0.435
-11.080 -7.574 -3.553
-6.717 -7.957 1.241
-10.837 -6.617 -4.369
-11.887 -8.802 -3.111
-7.176 -7.965 0.785
-9.406 -2.980 -7.448
-9.406 -2.981 -7.448
-10.837 -6.617 -4.369
-8.211 -8.178 -0.059
-10.597 -6.779 -4.218
-9.262 -8.020 -1.279
-10.837 -6.617 -4.370
-14.794 -4.058 -10.931
-9.720 -6.591 -3.384
-9.178 -8.235 -0.951
-6.980 -8.223 1.245
-10.597 -6.779 -4.218
-10.539 -6.705 -4.220
-10.603 -6.779 -4.226
-8.191 -8.353 0.068
-6.236 -7.831 1.596
-9.053 -9.448 0.391
-6.236 -7.831 1.596
-8.748 -5.326 -3.590
-9.351 -3.018 -7.357
-6.255 -7.345 1.092
-6.637 -7.959 1.325
-9.324 -7.873 -1.464
-10.579 -6.540 -4.169
-7.782 -8.334 0.484
-7.053 -7.982 0.931
-6.952 -8.225 1.274
-10.815 -8.380 -2.446
-8.956 -8.943 -0.019
-6.805 -8.084 1.272
-6.522 -7.654 1.132
-9.325 -7.872 -1.466
-6.933 -8.319 1.384
-9.320 -3.022 -7.320
-6.521 -7.656 1.134
-6.975 -8.021 1.028
-7.044 -8.310 1.249
-11.147 -8.692 -2.463
-11.957 -3.926 -8.515
-7.165 -8.378 1.215
-14.590 -4.126 -10.666
-8.500 -8.383 -0.136
-5.958 -7.281 1.325
-10.762 -7.731 -3.076
-10.819 -8.378 -2.451
-9.316 -3.024 -7.314
-11.953 -3.927 -8.510
-6.953 -8.225 1.273
-6.778 -8.089 1.304
-13.457 -4.594 -9.925
-8.956 -8.943 -0.019
-6.720 -7.809 1.089
-5.830 -7.185 1.357
-9.377 -9.925 0.546
-6.067 -6.918 0.853
-6.067 -6.918 0.853
-9.123 -9.127 -0.059
-6.631 -7.963 1.334
-10.669 -6.797 -4.275
-9.666 -6.606 -3.316
-6.651 -8.076 1.428
-7.031 -8.317 1.268
-11.291 -8.330 -2.996
-11.820 -8.850 -2.994
-14.567 -4.119 -10.637
-14.586 -8.061 -6.611
-6.753 -8.334 1.495
-10.448 -6.639 -3.938
-9.320 -3.036 -7.305
-6.956 -8.340 1.386
-7.737 -8.234 0.498
-17.174 -4.988 -13.193
-12.605 -8.782 -3.834
-9.260 -8.020 -1.276
-6.008 -7.329 1.323
-14.631 -4.107 -10.714
-7.048 -7.982 0.936
-13.353 -3.596 -9.911
-9.055 -9.449 0.390
-9.584 -3.007 -7.595
-6.238 -7.831 1.594
-9.062 -9.457 0.391
-7.212 -8.111 0.896
-13.268 -3.617 -9.805
-7.200 -8.110 0.907
-11.030 -8.732 -2.305
-7.251 -8.439 1.174
-6.702 -7.819 1.117
-14.375 -3.598 -10.881
-11.837 -2.061 -10.245
-5.756 -7.719 1.964
-6.748 -7.828 1.080
-6.704 -7.819 1.114
-16.841 -4.058 -12.938
-8.571 -9.204 0.587
-7.067 -8.307 1.223
-7.103 -6.793 -0.329
-8.956 -8.943 -0.019
-7.212 -8.111 0.896
-15.871 -7.739 -8.171
-14.334 -8.071 -6.344
-7.178 -8.116 0.935
-9.309 -7.877 -1.444
-14.332 -8.071 -6.343
-8.957 -8.946 -0.016
-11.282 -8.329 -2.988
-9.475 -3.018 -6.841
-14.338 -3.616 -10.825
-14.469 -4.146 -10.512
-14.520 -4.139 -10.569
-14.353 -8.071 -6.364
-10.450 -6.639 -3.939
-7.515 -8.541 1.008
-10.582 -6.654 -4.066
-5.326 -7.136 1.812
-8.224 -8.630 0.406
-14.653 -8.084 -6.659
-7.302 -8.577 1.264
-15.765 -7.758 -8.045
-11.519 -8.248 -3.276
-14.654 -8.084 -6.660
-14.521 -8.079 -6.528
-9.135 -9.131 -0.070
-7.610 -9.188 1.517
-9.101 -6.825 -2.334
-6.578 -7.975 1.399
-6.809 -8.086 1.268
-7.779 -8.335 0.485
-11.910 -3.950 -8.443
-13.677 -4.257 -10.282
-12.142 -3.960 -8.671
-8.160 -8.217 -0.124
-8.702 -8.074 -0.659
-10.376 -6.815 -3.942
-7.995 -8.386 0.265
-6.529 -8.026 1.500
-8.864 -9.141 0.235
-9.621 -2.960 -7.042
-6.575 -7.673 1.100
-7.660 -8.408 0.729
-6.845 -7.852 1.008
-6.638 -7.962 1.326
-8.177 -8.353 0.083
-9.140 -9.126 -0.078
-7.674 -8.401 0.728
-6.232 -7.829 1.598
-12.129 -3.954 -8.665
-8.975 -8.945 -0.035
-6.805 -8.086 1.273
-7.613 -8.415 0.783
-10.379 -6.803 -3.975
-10.379 -6.803 -3.975
-8.299 -9.255 0.908
-6.528 -7.665 1.138
-7.734 -8.235 0.500
-5.739 -6.948 1.204
-12.291 -4.668 -7.704
-6.509 -8.474 1.966
-8.632 -7.672 -1.138
-13.289 -3.612 -9.831
-5.996 -6.877 0.883
-11.746 -8.852 -2.913
-14.531 -4.126 -10.595
-8.302 -9.256 0.906
-6.689 -7.825 1.136
-9.378 -9.925 0.544
-8.976 -8.945 -0.036
-6.939 -8.236 1.299
-7.620 -8.408 0.769
-7.827 -8.323 0.426
-8.976 -8.943 -0.038
-10.969 -8.740 -2.235
-9.038 -7.991 -1.097
-11.803 -8.855 -2.965
-9.305 -3.043 -7.279
-5.788 -7.211 1.424
-15.468 -5.065 -10.470
-6.689 -7.825 1.135
-7.041 -8.240 1.201
-10.805 -8.281 -2.535
-10.454 -6.624 -3.966
-9.142 -9.126 -0.081
-7.608 -9.185 1.516
-8.976 -8.943 -0.038
-6.522 -7.684 1.164
-9.151 -8.213 -1.052
-7.611 -9.196 1.526
-14.401 -3.597 -10.907
-11.295 -8.334 -2.996
-11.784 -8.859 -2.943
-6.938 -8.236 1.300
-12.172 -3.942 -8.722
-6.524 -7.670 1.147
-6.115 -7.762 1.648
-14.256 -8.105 -6.235
-6.223 -7.833 1.611
-15.497 -7.697 -7.842
-14.522 -4.143 -10.568
-15.314 -7.694 -7.662
-7.509 -8.560 1.034
-9.134 -9.157 -0.045
-9.267 -3.047 -7.231
-11.864 -8.847 -3.036
-8.184 -8.206 -0.155
-8.375 -8.076 -0.306
-7.670 -8.396 0.708
-7.187 -8.018 0.813
-7.667 -8.397 0.712
-8.839 -9.150 0.268
-6.991 -8.023 1.014
-8.839 -9.148 0.267
-9.100 -7.055 -2.126
-12.286 -3.816 -8.975
-11.872 -8.812 -3.083
-8.168 -8.350 0.088
-7.205 -8.107 0.899
-9.201 -3.059 -7.142
-6.452 -7.773 1.323
-10.754 -7.738 -3.061
-11.893 -2.088 -10.272
-6.578 -7.797 1.219
-6.697 -7.814 1.117
-6.779 -8.089 1.302
-7.655 -8.400 0.746
-17.129 -4.997 -13.136
-15.476 -5.058 -10.484
-12.173 -3.941 -8.723
-14.575 -4.121 -10.644
-9.376 -9.925 0.546
-14.441 -8.083 -6.442
-10.319 -6.828 -3.868
-8.162 -8.216 -0.127
-14.756 -4.078 -10.874
-11.563 -8.323 -3.246
-8.873 -9.153 0.236
-14.655 -3.561 -11.197
-7.770 -8.233 0.463
-13.590 -3.549 -10.195
-6.977 -8.021 1.025
-13.590 -3.548 -10.196
-7.664 -8.403 0.720
-9.097 -7.061 -2.117
-6.077 -7.613 1.537
-10.390 -6.714 -4.068
-8.387 -8.820 0.386
-10.325 -6.912 -3.441
-13.594 -3.547 -10.201
-8.708 -8.070 -0.669
-14.557 -8.076 -6.556
-11.025 -7.685 -3.385
-14.567 -3.573 -11.097
-8.862 -9.145 0.239
-11.427 -8.305 -3.127
-8.389 -8.832 0.395
-7.770 -8.233 0.463
-5.639 -7.642 2.004
-14.685 -4.071 -10.811
-6.994 -8.022 1.009
-6.994 -8.022 1.009
-7.664 -8.403 0.720
-7.948 -8.258 0.120
-9.156 -8.211 -1.059
-8.387 -8.820 0.387
-8.866 -9.141 0.233
-11.079 -7.570 -3.558
-6.718 -7.826 1.108
-4.925 -7.503 2.577
-14.852 -4.053 -10.995
-11.080 -7.570 -3.558
-14.852 -4.053 -10.995
-14.614 -3.554 -11.163
-14.702 -3.541 -11.264
-11.067 -7.598 -3.517
-6.994 -8.022 1.009
-7.671 -8.407 0.719
-13.590 -3.549 -10.196
-13.522 -6.086 -8.204
-7.664 -8.403 0.720
-15.705 -5.001 -10.772
-10.419 -6.791 -4.028
-8.877 -9.150 0.230
-15.705 -5.001 -10.772
-12.333 -3.804 -9.036
-12.079 -8.833 -3.266
-10.761 -7.763 -3.042
-9.142 -9.126 -0.081
-10.487 -6.810 -4.079
-8.395 -9.240 0.798
-7.234 -8.110 0.873
-6.990 -8.087 1.084
-8.977 -8.945 -0.037
-5.931 -7.591 1.662
-9.326 -7.872 -1.466
-17.172 -4.989 -13.191
-6.211 -8.316 2.105
-9.142 -9.128 -0.078
-10.789 -7.768 -3.064
-10.766 -7.822 -2.986
-14.512 -4.128 -10.574
-8.408 -9.248 0.792
-13.607 -8.119 -5.562
-6.218 -7.834 1.617
-11.862 -2.105 -10.220
-5.819 -6.958 1.133
-10.206 -6.818 -3.760
-10.720 -7.826 -2.937
-9.138 -9.131 -0.073
-11.808 -5.257 -7.460
-11.920 -3.943 -8.460
-10.800 -7.730 -3.114
-6.149 -8.074 1.925
-17.081 -5.010 -13.076
-7.555 -8.522 0.948
-9.313 -7.876 -1.449
-6.262 -8.274 2.011
-13.929 -3.988 -10.962
-15.306 -5.712 -9.722
-8.601 -8.911 -0.075
-13.730 -4.019 -10.735
-16.810 -4.088 -12.867
-16.413 -4.124 -12.409
-16.141 -6.680 -9.852
-13.278 -3.923 -9.951
-16.769 -4.106 -12.807
-15.298 -5.716 -9.711
-13.522 -3.867 -10.232
-15.298 -5.716 -9.711
-16.371 -4.141 -12.350
-16.681 -5.017 -12.671
-15.298 -5.716 -9.711
-7.035 -8.113 1.073
-8.387 -8.263 -0.181
-8.719 -4.883 -4.338
-8.388 -8.263 -0.181
-8.388 -8.263 -0.181
-16.527 -5.030 -12.505
-13.531 -3.864 -10.244
-10.040 -8.876 -1.272
-15.303 -5.715 -9.717
-15.303 -5.715 -9.717
-16.527 -5.030 -12.505
-13.286 -3.920 -9.961
-8.599 -8.910 -0.074
-9.392 -5.085 -4.612
-8.599 -8.910 -0.074
-16.188 -6.684 -9.892
-8.835 -4.862 -4.480
-15.303 -5.715 -9.716
-8.599 -8.910 -0.073
-9.392 -5.085 -4.611
-16.404 -4.105 -12.428
-9.525 -9.359 -0.175
-15.303 -5.715 -9.717
-16.587 -5.017 -12.583
-9.328 -7.952 -1.385
-9.524 -9.359 -0.175
-15.918 -5.708 -10.299
-16.056 -5.688 -10.457
-8.388 -8.263 -0.181
-6.644 -7.830 1.176
-13.892 -4.004 -10.908
-8.388 -8.263 -0.181
-6.776 -8.100 1.319
-16.797 -5.405 -12.344
-6.956 -7.725 0.576
-9.301 -7.978 -1.331
-13.502 -4.057 -10.470
-16.405 -4.105 -12.428
-6.644 -7.830 1.175
-9.287 -7.986 -1.309
-13.329 -4.814 -8.898
-6.961 -8.112 1.146
-13.502 -4.057 -10.470
-13.286 -3.920 -9.961
-13.329 -4.814 -8.899
-6.645 -7.830 1.175
-15.909 -6.692 -9.614
-9.225 -9.430 0.174
-8.201 -8.876 0.644
-9.287 -7.986 -1.309
-9.675 -9.291 -0.545
-8.201 -8.876 0.644
-14.059 -5.739 -9.348
-13.329 -4.814 -8.898
-16.772 -4.105 -12.811
-15.909 -6.692 -9.614
-15.018 -6.175 -8.891
-9.525 -9.359 -0.175
-16.056 -5.688 -10.457
-15.303 -5.715 -9.717
-16.375 -4.140 -12.355
-13.688 -4.034 -10.678
-16.504 -4.118 -12.511
-15.303 -5.715 -9.717
-9.675 -9.291 -0.545
-16.403 -4.105 -12.427
-14.058 -5.739 -9.347
-8.342 -8.106 -0.287
-15.110 -6.184 -8.974
-9.373 -9.927 0.552
-16.131 -6.690 -9.829
-9.787 -8.080 -1.721
-16.505 -4.118 -12.512
-9.588 -9.346 -0.413
-16.405 -4.105 -12.429
-9.287 -7.986 -1.309
-11.885 -8.768 -3.150
-13.688 -4.034 -10.678
-16.056 -5.688 -10.458
-15.303 -5.715 -9.717
-15.909 -6.692 -9.614
-15.810 -6.321 -9.961
-6.681 -7.688 1.005
-15.286 -5.543 -9.882
-8.584 -8.327 -0.526
-8.317 -7.933 -0.413
-9.372 -9.927 0.552
-9.329 -7.952 -1.385
-16.405 -4.105 -12.428
-8.201 -8.876 0.644
-16.056 -5.688 -10.457
-17.069 -5.014 -13.057
-8.421 -4.854 -4.059
-16.375 -4.140 -12.355
-6.668 -7.692 1.021
-6.959 -8.103 1.140
-16.125 -6.690 -9.823
-9.372 -9.927 0.552
-17.068 -5.014 -13.056
-16.405 -4.105 -12.428
-6.925 -8.615 1.688
-9.282 -8.897 -0.760
-16.129 -6.637 -9.852
-15.842 -6.460 -9.847
-9.281 -8.897 -0.759
-9.675 -9.291 -0.545
-9.642 -9.343 -0.469
-8.705 -4.827 -4.391
-13.328 -4.814 -8.897
-9.642 -9.343 -0.469
-10.040 -8.876 -1.272
-16.056 -5.688 -10.457
-9.642 -9.343 -0.469
-9.287 -7.986 -1.309
-16.404 -4.105 -12.428
-15.967 -6.687 -9.678
-16.796 -5.405 -12.344
-9.419 -5.098 -4.632
-9.787 -8.080 -1.721
-8.599 -8.910 -0.073
-8.201 -8.876 0.644
-9.287 -7.986 -1.309
-8.201 -8.876 0.644
-15.738 -6.698 -9.439
-8.020 -8.091 0.027
-16.404 -4.105 -12.427
-15.171 -5.731 -9.568
-8.328 -8.895 0.536
-16.375 -4.140 -12.355
-16.127 -6.690 -9.825
-8.328 -8.895 0.536
-16.056 -5.688 -10.457
-9.587 -9.347 -0.413
-9.366 -5.121 -4.555
-9.642 -9.343 -0.469
-9.366 -5.121 -4.555
-16.503 -4.118 -12.510
-16.056 -5.688 -10.457
-8.201 -8.876 0.645
-17.069 -5.014 -13.057
-16.405 -4.105 -12.429
-16.056 -5.688 -10.457
-9.225 -9.430 0.173
-15.303 -5.715 -9.717
-8.201 -8.876 0.646
-8.201 -8.876 0.646
-16.796 -5.405 -12.343
-15.842 -6.460 -9.848
-9.643 -9.343 -0.469
-16.505 -4.118 -12.512
-8.201 -8.876 0.644
-9.225 -9.430 0.173
-9.588 -9.346 -0.413
-15.873 -4.323 -12.556
-15.842 -6.460 -9.847
-16.772 -4.105 -12.810
-8.328 -8.895 0.536
-11.851 -8.745 -3.187
-6.813 -8.290 1.438
-9.301 -7.978 -1.331
-17.069 -5.014 -13.057
-9.588 -9.346 -0.413
-9.287 -7.986 -1.309
-8.212 -8.875 0.633
-9.588 -9.346 -0.413
-9.011 -5.268 -4.036
-9.588 -9.346 -0.414
-9.327 -7.990 -1.345
-16.772 -4.105 -12.810
-16.405 -4.105 -12.428
-15.843 -6.460 -9.848
-15.909 -6.693 -9.614
-15.172 -5.731 -9.568
-9.286 -7.986 -1.308
-9.642 -9.343 -0.469
-6.136 -7.177 1.042
-9.565 -8.177 -1.409
-16.126 -6.690 -9.824
-9.712 -9.300 -0.573
-6.136 -7.177 1.042
-16.405 -4.105 -12.428
-16.716 -5.431 -12.231
-7.694 -7.961 0.254
-6.850 -7.821 0.962
-14.693 -3.913 -11.810
-8.624 -7.661 -1.124
-8.624 -7.661 -1.124
-9.031 -7.992 -1.090
-9.486 -8.227 -1.349
-8.626 -7.665 -1.131
-9.755 -8.220 -1.595
-8.912 -8.001 -0.965
-9.267 -8.340 -0.969
-8.912 -8.001 -0.964
-9.083 -8.240 -0.851
-8.833 -8.010 -0.877
-8.911 -8.000 -0.964
-9.755 -8.220 -1.595
-9.319 -8.310 -1.048
-9.190 -8.718 -0.518
-8.942 -7.996 -0.999
-9.430 -8.041 -1.416
-9.162 -8.211 -1.067
-9.011 -8.237 -0.850
-8.863 -8.005 -0.914
-8.941 -7.996 -0.999
-9.008 -8.221 -0.861
-9.162 -8.211 -1.066
-9.342 -8.034 -1.337
-9.317 -7.871 -1.458
-9.342 -8.034 -1.337
-9.103 -8.241 -0.870
-8.941 -7.996 -0.999
-9.978 -3.059 -7.362
-8.863 -8.005 -0.914
-9.342 -8.034 -1.337
-9.319 -8.310 -1.048
-9.315 -7.871 -1.456
-9.353 -8.271 -1.169
-9.977 -3.058 -7.361
-9.341 -8.034 -1.335
-9.008 -8.235 -0.850
-8.863 -8.005 -0.914
-9.978 -3.059 -7.363
-10.841 -5.306 -5.608
-8.845 -8.028 -0.872
-9.971 -3.062 -7.354
-9.932 -4.669 -5.381
-9.223 -7.888 -1.347
-8.610 -7.676 -1.116
-8.837 -8.008 -0.883
-9.153 -8.722 -0.477
-9.972 -3.062 -7.354
-9.972 -3.062 -7.354
-8.611 -7.675 -1.117
-9.972 -3.062 -7.354
-9.223 -7.888 -1.347
-10.826 -5.307 -5.593
-6.393 -7.905 1.513
-8.608 -7.676 -1.115
-10.826 -5.307 -5.592
-9.971 -3.062 -7.353
-10.708 -5.304 -5.477
-9.971 -3.062 -7.353
-9.971 -3.062 -7.353
-9.244 -8.021 -1.258
-6.868 -8.479 1.513
-9.304 -7.872 -1.445
-9.359 -8.302 -1.136
-9.970 -3.062 -7.353
-9.400 -8.042 -1.385
-6.868 -8.479 1.513
-5.975 -7.516 1.535
-9.325 -8.035 -1.318
-10.826 -5.307 -5.592
-6.218 -7.835 1.618
-7.034 -7.917 0.883
-9.162 -8.236 -0.934
-9.468 -8.254 -1.301
-9.471 -8.211 -1.315
-9.980 -3.057 -7.366
-8.792 -8.083 -0.733
-9.327 -8.035 -1.320
-9.171 -8.257 -1.016
-9.227 -7.888 -1.351
-5.880 -6.810 0.932
-9.227 -7.888 -1.351
-9.171 -8.257 -1.016
-9.981 -3.057 -7.367
-9.981 -3.057 -7.367
-6.216 -7.839 1.624
-10.165 -6.815 -3.751
-9.015 -4.983 -4.218
-10.165 -6.815 -3.751
-9.980 -3.057 -7.367
-8.229 -8.322 -0.189
-9.981 -3.058 -7.367
-5.925 -7.555 1.631
-9.981 -3.058 -7.367
-9.327 -8.035 -1.320
-6.012 -7.397 1.386
-6.221 -7.835 1.615
-9.847 -3.065 -7.218
-9.981 -3.057 -7.367
-6.221 -7.835 1.615
-9.365 -8.305 -1.139
-10.833 -5.303 -5.603
-6.813 -8.517 1.610
-9.147 -3.027 -7.181
-9.327 -8.035 -1.320
-10.295 -5.303 -5.066
-10.717 -5.300 -5.490
-9.227 -7.888 -1.351
-6.391 -7.906 1.515
-5.976 -7.516 1.533
-9.470 -8.255 -1.301
-10.716 -5.300 -5.490
-6.868 -8.468 1.503
-10.294 -5.303 -5.064
-9.583 -3.016 -7.572
-5.977 -7.516 1.532
-8.271 -8.093 -0.184
-7.618 -7.786 0.154
-6.391 -7.904 1.514
-9.583 -3.016 -7.572
-9.014 -4.983 -4.218
-6.390 -7.905 1.516
-11.356 -4.827 -6.709
-9.365 -8.306 -1.138
-9.243 -8.021 -1.257
-5.069 -6.883 1.815
-6.867 -8.460 1.498
-10.835 -5.303 -5.605
-9.226 -7.888 -1.349
-7.884 -7.900 -0.019
-9.935 -4.666 -5.387
-5.976 -7.516 1.533
-9.204 -3.044 -7.176
-6.867 -8.460 1.498
-8.792 -8.083 -0.733
-9.537 -4.664 -4.992
-6.808 -8.521 1.618
-10.295 -5.303 -5.066
-10.833 -5.303 -5.603
-5.975 -7.516 1.533
-5.997 -7.518 1.507
-10.833 -5.303 -5.603
-9.203 -3.044 -7.174
-5.379 -6.979 1.601
-9.203 -3.044 -7.174
-8.956 -8.346 -0.649
-6.989 -7.927 0.939
-5.954 -7.274 1.322
-9.583 -3.016 -7.572
-9.367 -8.306 -1.139
-6.020 -7.357 1.339
-9.172 -8.259 -1.014
-10.834 -5.303 -5.604
-11.357 -4.827 -6.710
-9.980 -3.057 -7.367
-11.357 -4.827 -6.710
-5.976 -7.516 1.532
-11.194 -4.824 -6.542
-5.423 -7.584 2.160
-9.847 -3.065 -7.218
-5.976 -7.516 1.532
-11.357 -4.827 -6.710
-9.758 -8.220 -1.598
-8.954 -8.345 -0.647
-10.717 -5.301 -5.490
-9.044 -8.243 -0.811
-10.110 -6.662 -3.602
-7.362 -8.022 0.625
-8.343 -8.346 -0.257
-8.790 -8.084 -0.731
-5.976 -7.516 1.533
-5.424 -7.583 2.159
-8.917 -7.999 -0.971
-9.981 -3.057 -7.367
-5.432 -7.463 2.030
-8.953 -8.346 -0.646
-5.105 -7.362 2.259
-9.170 -8.257 -1.014
-11.358 -4.827 -6.711
-9.227 -7.888 -1.350
-9.981 -3.058 -7.367
-11.471 -4.649 -7.115
-5.130 -7.378 2.250
-6.531 -7.887 1.352
-9.873 -6.872 -3.157
-8.042 -8.124 0.016
-8.790 -8.314 -0.542
-9.980 -3.057 -7.366
-5.310 -6.791 1.483
-10.833 -5.303 -5.603
-5.130 -7.384 2.256
-10.294 -5.303 -5.065
-10.717 -5.300 -5.490
-5.425 -7.584 2.158
-8.903 -8.260 -0.716
-11.471 -4.649 -7.115
-9.940 -5.565 -4.433
-8.953 -8.346 -0.646
-11.357 -4.827 -6.709
-8.321 -7.839 -0.496
-8.354 -7.857 -0.510
-8.354 -7.857 -0.510
-8.027 -8.092 0.021
-8.027 -8.092 0.021
-7.717 -8.055 0.241
-8.842 -7.969 -0.880
-8.842 -7.969 -0.880
-11.593 -5.808 -5.866
-10.484 -6.851 -3.766
-9.519 -8.318 -1.221
-8.292 -8.868 0.572
-8.768 -7.950 -0.826
-9.502 -8.197 -1.321
-9.316 -8.481 -0.975
-11.596 -5.807 -5.870
-8.241 -7.826 -0.429
-12.525 -7.991 -4.739
-7.381 -6.809 -0.709
-10.303 -6.903 -3.545
-9.689 -7.978 -1.722
-7.722 -8.054 0.235
-11.446 -6.602 -4.963
-12.525 -7.991 -4.739
-11.605 -5.804 -5.883
-8.427 -7.878 -0.562
-7.895 -7.975 0.068
-7.332 -6.802 -0.671
-8.848 -7.871 -0.985
-8.152 -6.238 -1.987
-8.152 -6.238 -1.987
-12.525 -7.991 -4.740
-9.244 -8.122 -1.169
-9.408 -5.106 -4.611
-9.408 -5.106 -4.611
-8.151 -6.239 -1.986
-8.023 -8.092 0.026
-9.695 -7.954 -1.750
-8.399 -7.852 -0.561
-12.525 -7.991 -4.740
-8.848 -7.871 -0.986
-8.848 -7.871 -0.986
-7.717 -8.056 0.242
-9.441 -8.420 -1.160
-9.651 -8.160 -1.505
-11.499 -6.592 -5.025
-7.717 -8.055 0.241
-9.410 -5.106 -4.614
-10.642 -6.821 -3.951
-10.642 -6.821 -3.951
-8.358 -7.905 -0.462
-7.895 -7.975 0.068
-10.645 -6.820 -3.955
-10.645 -6.820 -3.955
-11.499 -6.592 -5.025
-11.499 -6.592 -5.025
-8.153 -6.237 -1.989
-10.948 -8.820 -2.265
-10.291 -5.958 -4.619
-10.588 -6.823 -3.893
-7.717 -8.056 0.241
-9.694 -7.960 -1.744
-8.428 -7.878 -0.563
-8.399 -7.854 -0.560
-8.399 -7.854 -0.560
-8.848 -7.871 -0.985
-7.333 -6.801 -0.673
-8.023 -8.092 0.025
-9.442 -8.418 -1.164
-8.748 -8.506 -0.242
-8.505 -8.747 0.238
-12.516 -7.993 -4.729
-9.242 -8.126 -1.162
-9.691 -7.973 -1.728
-9.443 -5.059 -4.689
-9.244 -8.126 -1.164
-7.818 -7.964 0.136
-8.260 -7.652 -0.633
-8.213 -7.980 -0.242
-7.732 -8.045 0.216
-9.331 -8.462 -1.009
-8.299 -7.927 -0.386
-8.299 -7.926 -0.386
-8.038 -8.087 0.005
-10.974 -8.809 -2.305
-10.492 -8.766 -1.737
-8.203 -4.225 -4.224
-9.548 -5.628 -4.255
-8.847 -7.871 -0.984
-9.419 -5.094 -4.635
-9.628 -8.229 -1.416
-8.137 -7.078 -1.079
-8.038 -8.087 0.005
-10.231 -8.940 -1.296
-9.526 -8.302 -1.243
-10.267 -8.935 -1.337
-10.231 -8.940 -1.296
-7.731 -8.045 0.217
-9.409 -5.096 -4.623
-7.731 -8.045 0.217
-8.430 -8.884 0.451
-7.731 -8.045 0.217
-9.525 -8.305 -1.239
-8.430 -8.884 0.451
-8.260 -7.652 -0.633
-8.258 -7.851 -0.421
-10.468 -6.840 -3.754
-9.153 -8.737 -0.417
-8.573 -8.624 0.052
-9.392 -8.406 -1.132
-8.033 -8.088 0.011
-9.225 -8.367 -1.061
-9.332 -8.461 -1.010
-8.137 -7.078 -1.080
-9.190 -8.376 -1.015
-10.974 -8.809 -2.305
-12.519 -7.992 -4.731
-8.135 -6.205 -1.984
-9.695 -7.945 -1.760
-10.946 -8.820 -2.263
-8.847 -7.870 -0.985
-7.336 -6.799 -0.678
-10.492 -8.766 -1.737
-8.396 -7.851 -0.560
-11.627 -5.795 -5.913
-8.485 -7.759 -0.737
-9.695 -7.947 -1.758
-7.911 -7.963 0.041
-7.911 -7.964 0.041
-7.731 -8.045 0.217
-9.628 -8.229 -1.415
-9.262 -8.111 -1.199
-8.843 -7.968 -0.883
-10.477 -8.767 -1.722
-7.911 -7.964 0.041
-8.554 -8.621 0.068
-10.526 -8.763 -1.775
-8.440 -7.871 -0.652
-9.455 -8.193 -1.276
-10.946 -8.820 -2.263
-9.422 -5.094 -4.639
-8.750 -8.507 -0.244
-10.097 -8.559 -1.541
-10.974 -8.809 -2.304
-8.397 -7.853 -0.558
-12.569 -7.988 -4.787
-8.750 -8.507 -0.244
-12.607 -7.074 -5.627
-10.477 -8.767 -1.722
-8.275 -8.343 0.058
-8.133 -6.207 -1.980
-8.270 -8.350 0.070
-8.396 -7.853 -0.558
-8.675 -8.453 -0.224
-9.571 -8.989 -0.637
-8.666 -8.452 -0.216
-10.098 -8.559 -1.541
-9.362 -8.414 -1.096
-12.604 -7.075 -5.623
-10.974 -8.809 -2.305
-8.764 -8.454 -0.313
-8.010 -7.456 -0.584
-12.676 -7.065 -5.706
-8.027 -7.654 -0.394
-9.421 -5.094 -4.639
-8.440 -7.871 -0.652
-7.729 -8.045 0.218
-7.764 -7.390 -0.458
-8.766 -8.505 -0.261
-9.424 -9.183 -0.259
-12.570 -7.080 -5.584
-10.477 -8.767 -1.722
-7.911 -7.964 0.041
-10.974 -8.809 -2.305
-8.483 -7.762 -0.733
-11.226 -5.794 -5.682
-8.033 -8.088 0.011
-8.504 -8.747 0.239
-10.526 -8.763 -1.774
-9.226 -8.367 -1.061
-8.521 -8.750 0.225
-10.584 -6.825 -3.889
-12.609 -7.074 -5.630
-12.676 -7.065 -5.706
-12.645 -7.068 -5.672
-9.190 -8.376 -1.015
-9.402 -5.099 -4.612
-12.609 -7.074 -5.630
-12.607 -7.075 -5.626
-8.330 -7.688 -0.645
-8.228 -8.155 -0.072
-8.240 -7.646 -0.842
-7.333 -6.802 -0.672
-10.492 -8.766 -1.737
-12.604 -7.075 -5.623
-11.623 -5.796 -5.908
-8.440 -7.871 -0.652
-9.392 -8.406 -1.133
-22.042 -4.930 -17.125
-19.558 -2.627 -16.966
-19.558 -2.627 -16.966