-6.862 -6.172 -0.673
-7.432 -7.395 -0.025
-5.361 -6.534 1.181
-7.425 -6.368 -1.035
-5.809 -7.562 1.768
-5.809 -7.562 1.768
-7.596 -6.405 -1.169
-5.810 -7.562 1.766
-5.810 -7.562 1.766
-5.279 -7.652 2.384
-4.968 -7.141 2.177
-5.810 -7.562 1.766
-5.810 -7.560 1.765
-5.189 -6.569 1.395
-4.964 -7.157 2.195
-7.439 -6.360 -1.058
-5.825 -7.562 1.751
-5.293 -7.653 2.371
-5.825 -7.562 1.752
-5.825 -7.561 1.750
-5.293 -7.653 2.371
-6.567 -6.424 -0.120
-6.205 -7.537 1.348
-7.607 -6.411 -1.174
-6.102 -6.284 0.203
-5.894 -7.555 1.676
-5.825 -7.562 1.751
-5.894 -7.555 1.676
-7.439 -6.359 -1.058
-5.824 -7.552 1.742
-3.034 -5.765 2.746
-4.362 -7.728 3.376
-5.293 -7.653 2.371
-6.346 -6.373 0.049
-5.825 -7.564 1.753
-5.825 -7.563 1.753
-5.825 -7.562 1.751
-7.607 -6.408 -1.177
-6.655 -7.449 0.807
-6.655 -7.449 0.807
-5.825 -7.564 1.753
-5.825 -7.562 1.752
-4.472 -7.394 2.916
-5.065 -6.618 1.569
-4.964 -7.161 2.198
-4.471 -7.394 2.915
-5.218 -7.519 2.304
-5.562 -7.133 1.572
-16.415 -6.516 -10.146
-7.616 -6.416 -1.178
-5.830 -7.559 1.744
-5.059 -6.613 1.569
-5.830 -7.560 1.745
-4.764 -6.634 1.879
-6.764 -6.850 0.068
-5.008 -6.787 1.784
-5.899 -7.553 1.669
-5.899 -7.553 1.669
-6.568 -6.411 -0.134
-5.830 -7.561 1.745
-5.830 -7.560 1.744
-4.820 -7.478 2.659
-5.289 -7.653 2.374
-4.963 -7.147 2.186
-5.899 -7.553 1.669
-5.205 -7.511 2.305
-7.445 -6.356 -1.068
-5.829 -7.560 1.745
-5.897 -7.563 1.680
-4.459 -7.394 2.928
-4.819 -7.482 2.664
-4.819 -7.481 2.663
-5.059 -6.615 1.571
-4.819 -7.483 2.665
-6.571 -6.415 -0.133
-5.183 -6.584 1.415
-5.288 -7.653 2.375
-5.829 -7.560 1.745
-7.445 -6.355 -1.068
-5.059 -6.595 1.552
-5.898 -7.553 1.670
-4.884 -7.156 2.275
-4.294 -6.760 2.479
-4.459 -7.393 2.927
-4.459 -7.393 2.927
-5.829 -7.560 1.745
-6.498 -7.460 0.975
-5.548 -7.108 1.572
-6.502 -7.467 0.977
-4.819 -7.483 2.665
-5.111 -6.631 1.535
-5.111 -6.613 1.516
-5.829 -7.558 1.743
-4.876 -7.113 2.252
-6.350 -6.368 0.040
-4.459 -7.393 2.927
-4.459 -7.393 2.927
-5.106 -6.590 1.498
-5.336 -7.497 2.160
-4.819 -7.483 2.664
-6.572 -6.412 -0.137
-6.572 -6.413 -0.136
-4.963 -7.148 2.188
-5.288 -7.653 2.376
-4.963 -7.145 2.184
-4.674 -6.488 1.837
-5.830 -7.560 1.745
-4.885 -7.150 2.267
-5.113 -6.621 1.523
-4.352 -5.940 1.606
-6.571 -6.416 -0.132
-5.288 -7.653 2.375
-6.571 -6.407 -0.141
-4.290 -6.942 2.669
-4.635 -7.397 2.766
-5.898 -7.553 1.669
-4.131 -6.667 2.551
-5.898 -7.553 1.669
-4.964 -7.144 2.182
-7.444 -6.359 -1.064
-4.292 -6.969 2.695
-3.648 -5.178 1.544
-5.114 -6.629 1.531
-5.208 -7.503 2.294
-4.433 -7.163 2.741
-4.564 -7.164 2.611
-5.207 -7.506 2.297
-5.002 -7.146 2.145
-5.829 -7.560 1.745
-5.336 -7.495 2.157
-5.829 -7.560 1.745
-5.898 -7.553 1.669
-6.068 -6.529 0.479
-5.829 -7.560 1.745
-7.490 -6.528 -0.944
-5.336 -7.498 2.160
-4.460 -7.392 2.925
-5.336 -7.486 2.149
-5.059 -6.624 1.579
-3.469 -5.164 1.709
-5.828 -7.560 1.746
-4.552 -7.339 2.779
-4.556 -7.394 2.833
-4.460 -7.391 2.924
-4.675 -6.492 1.839
-6.657 -6.366 -0.278
-4.715 -7.496 2.782
-4.460 -7.391 2.924
-6.575 -6.415 -0.138
-6.575 -6.411 -0.141
-5.827 -7.560 1.748
-4.460 -7.391 2.924
-5.334 -7.478 2.140
-4.460 -7.392 2.925
-5.063 -6.944 1.888
-4.435 -7.162 2.738
-4.292 -6.958 2.684
-5.827 -7.560 1.748
-6.511 -7.459 0.961
-5.058 -6.624 1.581
-5.897 -7.553 1.671
-5.195 -7.476 2.274
-5.897 -7.553 1.671
-4.486 -7.333 2.866
-7.222 -6.328 -0.872
-5.287 -7.652 2.375
-6.106 -6.279 0.193
-5.829 -7.560 1.745
-4.910 -7.478 2.569
-4.293 -6.969 2.694
-6.569 -6.429 -0.118
-4.460 -7.392 2.925
-5.829 -7.560 1.745
-5.828 -7.552 1.738
-4.564 -7.164 2.611
-5.335 -7.499 2.162
-6.571 -6.412 -0.136
-7.445 -6.363 -1.060
-5.829 -7.559 1.744
-4.130 -6.663 2.548
-6.501 -7.471 0.983
-4.130 -6.674 2.558
-5.898 -7.553 1.669
-3.469 -5.164 1.710
-5.829 -7.560 1.745
-5.829 -7.560 1.745
-4.459 -7.391 2.925
-5.287 -7.653 2.375
-4.134 -6.947 2.819
-4.961 -7.195 2.233
-5.254 -7.489 2.243
-6.058 -6.435 0.400
-5.059 -6.617 1.573
-5.332 -7.460 2.121
-4.918 -7.401 2.501
-5.725 -6.369 0.665
-4.558 -7.406 2.840
-4.283 -6.453 2.187
-4.964 -7.146 2.184
-5.694 -7.426 1.735
-6.523 -6.245 -0.261
-4.818 -7.481 2.664
-4.796 -7.139 2.358
-4.131 -6.671 2.555
-5.334 -7.498 2.162
-4.694 -6.499 1.827
-5.298 -6.208 0.927
-4.563 -7.406 2.837
-6.562 -7.494 0.945
-6.562 -7.494 0.946
-4.888 -7.161 2.275
-5.067 -6.636 1.583
-4.708 -6.779 2.092
-4.983 -7.162 2.180
-6.487 -6.423 -0.042
-6.487 -6.421 -0.043
-4.685 -6.493 1.830
-6.487 -6.414 -0.051
-5.649 -7.451 1.820
-5.068 -6.617 1.565
-4.644 -7.448 2.809
-4.713 -7.499 2.788
-4.143 -6.672 2.543
-5.905 -7.561 1.669
-4.719 -6.830 2.131
-5.909 -7.553 1.659
-5.213 -7.653 2.450
-4.305 -6.968 2.680
-4.574 -7.163 2.601
-5.217 -7.523 2.306
-5.068 -6.633 1.580
-6.563 -7.493 0.944
-5.305 -7.651 2.356
-4.476 -7.395 2.911
-5.906 -7.550 1.658
-4.889 -7.162 2.276
-4.719 -7.484 2.782
-4.306 -6.966 2.678
-5.220 -7.507 2.285
-5.220 -7.506 2.284
-4.275 -6.452 2.194
-5.729 -7.572 1.856
-4.471 -7.393 2.915
-4.678 -6.489 1.834
-4.842 -7.688 2.866
-4.644 -7.448 2.808
-5.842 -7.557 1.729
-4.445 -7.161 2.728
-4.354 -7.654 3.308
-5.944 -6.277 0.353
-5.908 -7.552 1.659
-5.220 -7.502 2.275
-5.842 -7.559 1.732
-6.271 -6.375 0.127
-6.487 -6.422 -0.042
-6.563 -7.494 0.945
-5.065 -6.654 1.603
-3.418 -5.202 1.803
-5.221 -7.508 2.286
-6.487 -6.432 -0.032
-5.908 -7.553 1.659
-5.885 -7.495 1.621
-5.729 -7.572 1.856
-5.220 -7.516 2.296
-5.907 -7.554 1.662
-6.563 -7.492 0.943
-5.062 -6.571 1.525
-5.218 -7.513 2.292
-4.881 -7.412 2.549
-4.305 -6.967 2.679
-5.498 -6.862 1.383
-5.206 -7.460 2.251
-6.487 -6.422 -0.042
-6.487 -6.422 -0.042
-5.684 -7.436 1.769
-4.349 -7.642 3.302
-5.842 -7.560 1.732
-6.562 -7.499 0.952
-5.305 -7.651 2.356
-5.908 -7.552 1.659
-5.066 -6.598 1.546
-4.142 -6.683 2.556
-5.729 -7.572 1.856
-4.274 -6.457 2.198
-5.843 -7.559 1.730
-3.234 -5.784 2.562
-4.582 -7.060 2.499
-6.065 -7.547 1.497
-5.907 -6.453 0.568
-4.644 -7.448 2.808
-7.216 -6.338 -0.855
-5.726 -7.577 1.864
-6.655 -7.450 0.808
-4.645 -7.449 2.808
-5.894 -7.555 1.676
-6.561 -6.394 -0.145
-4.446 -7.160 2.726
-4.813 -7.484 2.672
-6.567 -6.420 -0.124
-5.292 -7.652 2.371
-5.292 -7.652 2.371
-5.116 -6.614 1.514
-6.046 -6.535 0.511
-4.472 -7.392 2.912
-6.872 -6.168 -0.684
-4.812 -7.486 2.674
-4.143 -6.874 2.742
-3.644 -5.963 2.331
-4.683 -6.493 1.832
-5.210 -7.577 2.379
-5.728 -7.573 1.858
-4.506 -7.345 2.859
-5.349 -7.498 2.148
-4.472 -7.392 2.913
-5.349 -7.498 2.148
-5.347 -7.480 2.132
-5.824 -7.562 1.752
-5.824 -7.562 1.752
-5.291 -7.653 2.372
-5.064 -6.619 1.570
-6.655 -7.447 0.805
-4.571 -7.407 2.828
-6.056 -7.542 1.501
-5.826 -7.562 1.750
-5.292 -7.652 2.370
-4.472 -7.391 2.911
-4.684 -6.491 1.825
-4.446 -7.160 2.725
-5.064 -6.627 1.579
-6.168 -7.438 1.281
-6.161 -7.581 1.430
-6.062 -6.559 0.515
-6.564 -6.408 -0.134
-6.051 -6.440 0.413
-4.312 -6.422 2.121
-4.813 -7.486 2.673
-6.563 -6.380 -0.161
-5.723 -7.572 1.860
-5.825 -7.562 1.751
-5.617 -7.331 1.725
-6.655 -7.453 0.811
-5.292 -7.652 2.370
-6.566 -6.423 -0.119
-4.887 -7.161 2.276
-4.472 -7.392 2.912
-4.472 -7.392 2.912
-6.566 -6.422 -0.122
-4.138 -6.672 2.549
-5.221 -7.506 2.283
-5.894 -7.555 1.675
-6.566 -6.414 -0.130
-5.064 -6.597 1.548
-4.472 -7.392 2.912
-4.841 -7.698 2.877
-5.825 -7.562 1.751
-4.138 -6.680 2.557
-4.135 -6.631 2.511
-5.292 -7.652 2.370
-5.825 -7.562 1.751
-6.655 -7.452 0.810
-4.813 -7.487 2.674
-5.292 -7.652 2.370
-4.914 -7.405 2.509
-5.894 -7.555 1.675
-5.292 -7.652 2.370
-5.786 -8.336 2.563
-4.137 -6.672 2.549
-4.905 -7.481 2.576
-5.728 -7.572 1.857
-5.292 -7.652 2.370
-5.891 -7.546 1.669
-5.894 -7.555 1.675
-5.220 -7.507 2.285
-6.566 -6.411 -0.132
-6.566 -6.416 -0.128
-4.401 -7.338 2.931
-6.655 -7.452 0.810
-6.566 -6.414 -0.130
-6.655 -7.454 0.812
-5.292 -7.652 2.370
-4.137 -6.678 2.556
-4.905 -7.479 2.575
-5.728 -7.572 1.858
-4.446 -7.161 2.727
-6.180 -7.492 1.325
-5.894 -7.555 1.675
-5.826 -7.563 1.752
-4.146 -6.927 2.789
-5.200 -7.582 2.395
-6.566 -6.426 -0.117
-5.825 -7.561 1.750
-5.190 -6.558 1.383
-5.825 -7.562 1.751
-7.603 -6.408 -1.174
-6.655 -7.450 0.808
-4.885 -7.571 2.708
-4.710 -7.498 2.789
-4.813 -7.486 2.674
-5.825 -7.562 1.751
-5.728 -7.572 1.858
-5.205 -7.579 2.387
-5.825 -7.562 1.751
-4.472 -7.392 2.912
-5.119 -6.625 1.521
-5.825 -7.562 1.751
-4.752 -6.569 1.837
-5.894 -7.555 1.676
-5.728 -7.571 1.856
-5.119 -6.608 1.503
-4.813 -7.485 2.673
-5.294 -7.651 2.367
-4.374 -6.985 2.629
-5.219 -7.509 2.286
-4.886 -7.164 2.280
-4.098 -6.250 2.167
-5.305 -7.651 2.356
-5.211 -7.652 2.451
-5.067 -6.615 1.563
-5.727 -7.565 1.852
-5.028 -6.857 1.844
-5.908 -7.552 1.659
-5.211 -7.652 2.450
-4.828 -7.484 2.656
-4.886 -7.202 2.316
-4.797 -7.453 2.672
-5.783 -8.335 2.565
-5.729 -7.572 1.857
-4.477 -7.395 2.911
-4.887 -7.160 2.275
-6.563 -7.493 0.944
-6.563 -7.493 0.944
-4.922 -7.403 2.498
-4.592 -7.001 2.431
-5.729 -7.572 1.857
-5.908 -7.552 1.659
-5.904 -6.448 0.567
-4.053 -6.240 2.205
-4.059 -6.240 2.199
-4.900 -6.891 2.008
-5.908 -7.553 1.660
-6.563 -7.498 0.950
-6.272 -6.374 0.124
-5.221 -7.506 2.283
-6.488 -6.422 -0.044
-4.981 -7.190 2.209
-5.729 -7.572 1.857
-5.066 -6.608 1.557
-5.729 -7.572 1.857
-4.284 -7.311 3.045
-5.742 -7.383 1.658
-6.563 -7.494 0.944
-6.271 -6.387 0.138
-4.982 -7.164 2.184
-5.833 -7.529 1.712
-5.211 -7.652 2.451
-5.904 -6.493 0.612
-5.905 -6.436 0.555
-4.406 -6.614 2.228
-5.906 -6.460 0.577
-4.752 -6.796 2.059
-6.876 -6.530 -0.333
-4.642 -7.447 2.809
-6.655 -7.449 0.807
-5.824 -7.562 1.752
-5.118 -6.656 1.553
-4.913 -7.403 2.508
-4.098 -6.250 2.167
-5.190 -6.585 1.411
-6.054 -6.444 0.413
-5.726 -7.564 1.851
-4.473 -7.391 2.911
-6.655 -7.451 0.809
-5.349 -7.498 2.147
-5.685 -7.440 1.774
-5.059 -6.565 1.519
-5.211 -7.645 2.445
-5.893 -7.555 1.677
-5.291 -7.652 2.371
-6.655 -7.450 0.808
-6.655 -7.449 0.807
-5.893 -7.555 1.677
-4.138 -6.670 2.547
-5.346 -7.494 2.149
-6.566 -6.415 -0.129
-4.917 -7.052 2.145
-5.727 -7.573 1.860
-6.053 -6.449 0.420
-6.052 -6.457 0.429
-4.571 -7.405 2.827
-5.893 -7.555 1.677
-7.437 -6.359 -1.056
-4.829 -6.500 1.695
-6.052 -6.441 0.412
-5.823 -7.547 1.738
-5.824 -7.562 1.753
-6.495 -7.466 0.984
-6.041 -6.416 0.397
-5.892 -7.555 1.676
-4.276 -6.453 2.193
-4.571 -7.406 2.827
-6.566 -6.415 -0.128
-4.575 -7.163 2.599
-6.050 -6.473 0.447
-4.469 -7.394 2.916
-5.783 -8.335 2.565
-5.348 -7.498 2.147
-5.727 -7.576 1.863
-5.829 -6.451 0.634
-5.526 -7.565 2.053
-6.655 -7.450 0.808
-3.644 -6.005 2.372
-4.472 -7.391 2.912
-5.348 -7.498 2.148
-5.174 -7.268 2.107
-5.893 -7.555 1.677
-4.137 -6.672 2.549
-4.052 -6.241 2.206
-5.893 -7.555 1.677
-5.348 -7.498 2.148
-5.824 -7.563 1.754
-6.135 -7.349 1.220
-5.824 -7.563 1.753
-5.727 -7.573 1.859
-5.893 -7.554 1.676
-4.360 -7.736 3.385
-4.797 -7.421 2.641
-5.727 -7.573 1.860
-4.928 -6.887 1.978
-5.824 -7.562 1.752
-5.348 -7.501 2.151
-4.645 -7.448 2.807
-4.709 -7.496 2.788
-4.645 -7.448 2.807
-6.566 -6.413 -0.130
-3.060 -5.766 2.722
-5.832 -6.418 0.610
-5.893 -7.556 1.678
-6.566 -6.417 -0.126
-5.727 -7.572 1.860
-3.650 -5.954 2.317
-5.727 -7.571 1.859
-4.137 -6.672 2.550
-3.481 -5.164 1.698
-5.824 -7.562 1.753
-6.030 -6.464 0.457
-4.864 -7.407 2.561
-4.294 -6.904 2.627
-4.303 -6.967 2.683
-4.534 -7.177 2.641
-5.673 -7.439 1.786
-5.719 -6.375 0.677
-6.343 -6.371 0.050
-5.724 -7.585 1.872
-5.824 -7.562 1.753
-5.291 -7.652 2.372
-5.642 -7.155 1.529
-5.828 -7.562 1.748
-4.710 -7.495 2.785
-4.645 -7.448 2.808
-4.472 -7.418 2.937
-4.059 -6.241 2.200
-3.481 -5.163 1.697
-5.828 -7.561 1.747
-5.149 -7.160 2.020
-5.330 -7.605 2.288
-5.714 -8.056 2.336
-5.688 -8.058 2.376
-5.586 -7.355 1.753
-5.686 -8.045 2.366
-5.688 -8.058 2.377
-5.435 -8.098 2.637
-5.435 -8.096 2.635
-5.719 -8.087 2.351
-5.226 -7.708 2.490
-5.547 -7.200 1.666
-5.547 -7.200 1.666
-5.330 -7.605 2.288
-5.752 -8.159 2.399
-5.330 -7.605 2.288
-5.330 -7.605 2.288
-5.435 -8.098 2.637
-6.145 -7.832 1.661
-5.572 -7.199 1.639
-4.158 -6.835 2.642
-6.169 -7.778 1.592
-5.098 -6.933 1.851
-5.436 -8.097 2.635
-5.491 -7.959 2.474
-4.634 -7.392 2.761
-5.749 -8.105 2.350
-5.688 -8.058 2.377
-4.858 -7.709 2.853
-5.545 -7.210 1.678
-5.714 -8.055 2.335
-4.983 -6.850 1.887
-5.436 -8.098 2.637
-4.836 -7.498 2.661
-4.055 -7.656 3.598
-5.216 -7.692 2.485
-5.436 -8.097 2.635
-5.547 -7.202 1.668
-6.169 -7.770 1.584
-5.436 -8.099 2.637
-4.858 -7.709 2.853
-5.198 -7.664 2.472
-5.250 -7.499 2.258
-5.435 -8.097 2.635
-6.169 -7.770 1.584
-5.330 -7.605 2.288
-5.688 -8.058 2.377
-6.224 -7.766 1.526
-5.199 -7.649 2.457
-4.858 -7.709 2.853
-5.436 -8.098 2.636
-5.688 -8.053 2.371
-4.872 -6.956 2.091
-5.318 -7.555 2.246
-5.686 -8.058 2.379
-4.853 -7.712 2.861
-6.168 -7.769 1.585
-5.470 -8.093 2.597
-5.432 -8.076 2.619
-5.618 -7.206 1.600
-5.290 -7.216 1.948
-5.316 -7.604 2.301
-5.434 -8.095 2.634
-5.469 -8.095 2.599
-5.470 -8.093 2.597
-5.426 -7.258 1.846
-5.465 -8.025 2.542
-5.670 -6.953 1.302
-4.242 -7.238 2.998
-5.105 -8.252 3.148
-5.717 -8.061 2.339
-5.573 -7.200 1.640
-4.121 -7.549 3.441
-5.574 -7.347 1.757
-5.331 -7.178 1.854
-4.991 -7.329 2.343
-5.584 -6.938 1.372
-5.251 -7.500 2.259
-6.088 -7.792 1.686
-5.670 -6.953 1.302
-5.769 -7.505 1.744
-6.048 -7.652 1.592
-4.858 -7.345 2.508
-5.600 -8.056 2.462
-4.854 -7.712 2.861
-5.600 -8.068 2.477
-5.670 -6.953 1.302
-5.640 -6.943 1.321
-4.939 -7.191 2.262
-5.584 -6.938 1.372
-5.584 -6.938 1.372
-5.521 -8.002 2.458
-5.584 -6.938 1.372
-5.529 -7.332 1.790
-5.584 -6.938 1.372
-4.883 -6.811 1.936
-5.584 -6.938 1.372
-5.212 -7.650 2.439
-5.204 -7.834 2.646
-5.547 -7.200 1.666
-6.168 -7.769 1.584
-5.928 -7.748 1.830
-5.436 -8.097 2.635
-5.057 -7.347 2.281
-5.687 -8.057 2.377
-4.838 -7.504 2.667
-5.436 -8.096 2.634
-5.316 -7.604 2.301
-5.229 -7.719 2.500
-5.278 -7.507 2.238
-5.670 -6.953 1.302
-5.533 -7.224 1.699
-5.687 -8.058 2.378
-5.573 -7.199 1.639
-4.615 -7.492 2.879
-5.573 -7.200 1.639
-6.082 -7.760 1.662
-4.985 -6.845 1.881
-5.717 -8.059 2.336
-4.985 -6.849 1.885
-5.686 -8.058 2.380
-5.316 -7.604 2.301
-5.101 -6.935 1.849
-5.233 -7.473 2.247
-4.985 -6.846 1.882
-4.927 -7.475 2.536
-6.090 -7.761 1.654
-5.587 -7.354 1.751
-5.233 -7.661 2.436
-4.615 -7.491 2.878
-5.769 -7.505 1.744
-5.717 -8.057 2.334
-5.696 -8.085 2.382
-5.316 -7.604 2.301
-6.141 -7.767 1.610
-5.036 -6.934 1.915
-5.732 -7.497 1.773
-5.220 -7.712 2.499
-5.684 -8.044 2.363
-6.090 -7.761 1.654
-6.090 -7.763 1.656
-5.533 -7.952 2.418
-6.168 -7.770 1.585
-6.141 -7.754 1.597
-5.688 -8.059 2.377
-4.615 -7.491 2.878
-4.615 -7.491 2.879
-5.547 -7.201 1.666
-5.316 -7.604 2.300
-5.211 -7.664 2.461
-5.436 -8.095 2.634
-5.769 -7.505 1.744
-4.615 -7.492 2.879
-5.573 -7.199 1.639
-5.732 -7.497 1.773
-5.670 -6.953 1.302
-5.928 -7.749 1.831
-5.629 -8.020 2.404
-5.687 -8.059 2.378
-5.047 -7.469 2.431
-5.670 -6.953 1.302
-5.230 -7.839 2.625
-5.769 -7.505 1.744
-5.670 -6.953 1.302
-4.841 -7.493 2.652
-5.036 -6.933 1.912
-5.678 -8.044 2.370
-5.316 -7.604 2.301
-5.308 -7.503 2.204
-6.167 -7.785 1.599
-6.141 -7.762 1.605
-6.163 -7.748 1.568
-5.587 -7.353 1.751
-4.985 -6.846 1.882
-5.308 -7.503 2.204
-5.687 -8.058 2.378
-5.436 -8.096 2.634
-5.769 -7.506 1.746
-5.688 -8.055 2.373
-6.141 -7.762 1.605
-5.649 -8.058 2.405
-5.685 -8.053 2.376
-6.168 -7.769 1.584
-5.675 -7.989 2.332
-5.687 -8.057 2.376
-5.685 -8.045 2.365
-5.670 -6.953 1.302
-6.168 -7.764 1.578
-5.663 -8.021 2.363
-5.685 -8.066 2.387
-5.587 -7.353 1.751
-5.535 -7.234 1.711
-5.587 -7.354 1.751
-5.176 -7.775 2.613
-5.688 -8.059 2.377
-5.730 -7.617 1.891
-5.691 -7.616 1.930
-5.700 -8.074 2.363
-5.643 -8.034 2.357
-5.036 -6.935 1.914
-5.471 -8.090 2.594
-4.085 -6.228 2.153
-5.016 -6.832 1.837
-5.436 -8.097 2.635
-5.591 -7.622 2.035
-4.615 -7.491 2.879
-4.615 -7.491 2.878
-5.691 -7.617 1.929
-5.684 -8.069 2.392
-6.090 -7.761 1.654
-5.238 -7.850 2.626
-4.974 -7.744 2.749
-6.219 -7.771 1.535
-5.547 -7.201 1.666
-5.436 -8.095 2.633
-4.540 -6.746 2.232
-4.838 -7.502 2.665
-5.479 -7.261 1.797
-5.670 -6.953 1.302
-5.691 -7.618 1.930
-6.090 -7.747 1.641
-5.738 -8.063 2.333
-5.718 -8.060 2.336
-5.279 -7.501 2.232
-6.155 -7.758 1.588
-5.501 -7.953 2.463
-6.087 -7.770 1.666
-5.547 -7.201 1.666
-5.687 -8.053 2.370
-5.411 -8.110 2.668
-5.436 -8.095 2.633
-6.222 -7.770 1.531
-5.690 -7.611 1.924
-5.201 -7.904 2.697
-6.167 -7.772 1.587
-6.166 -7.758 1.576
-5.036 -6.934 1.914
-5.587 -7.354 1.751
-5.436 -8.096 2.634
-5.769 -7.503 1.743
-5.691 -7.615 1.928
-5.421 -8.099 2.647
-5.099 -6.932 1.849
-5.436 -8.097 2.635
-5.668 -7.628 1.970
-5.015 -6.825 1.831
-5.686 -8.049 2.370
-5.248 -7.532 2.294
-5.278 -7.502 2.232
-5.278 -7.503 2.234
-5.235 -7.684 2.456
-5.687 -8.061 2.381
-5.471 -8.093 2.596
-6.168 -7.769 1.584
-5.436 -8.096 2.634
-4.838 -7.482 2.645
-5.644 -7.357 1.697
-5.572 -8.001 2.408
-5.648 -7.614 1.970
-4.883 -6.812 1.937
-4.883 -6.810 1.934
-4.766 -7.388 2.632
-5.835 -7.749 1.925
-5.293 -6.882 1.611
-4.232 -6.931 2.716
-5.686 -8.063 2.384
-5.601 -8.056 2.462
-3.858 -5.745 1.908
-4.818 -7.144 2.313
-5.474 -8.075 2.569
-5.158 -7.444 2.284
-4.883 -6.801 1.925
-4.883 -6.811 1.936
-5.293 -6.882 1.611
-5.313 -7.099 1.786
-5.837 -7.754 1.927
-5.440 -8.000 2.539
-3.908 -6.044 2.147
-5.522 -8.001 2.458
-5.522 -8.001 2.457
-5.037 -7.411 2.380
-5.038 -7.432 2.400
-5.440 -8.000 2.539
-5.067 -7.409 2.336
-5.573 -7.196 1.635
-5.913 -7.759 1.857
-5.675 -8.052 2.385
-5.928 -7.748 1.829
-5.587 -7.353 1.751
-5.667 -6.955 1.306
-5.436 -8.096 2.634
-6.168 -7.769 1.584
-6.168 -7.769 1.585
-5.436 -8.096 2.635
-4.615 -7.491 2.879
-5.036 -6.935 1.914
-5.214 -7.676 2.469
-5.685 -8.067 2.388
-6.222 -7.772 1.534
-5.010 -6.835 1.846
-4.457 -6.629 2.187
-5.219 -7.734 2.523
-5.687 -8.056 2.375
-6.167 -7.780 1.596
-5.211 -7.667 2.463
-5.213 -7.672 2.467
-5.038 -6.936 1.914
-5.309 -6.882 1.594
-5.436 -8.096 2.635
-4.835 -7.518 2.684
-6.163 -7.800 1.618
-5.036 -6.935 1.914
-6.219 -7.771 1.535
-5.222 -7.712 2.497
-6.168 -7.769 1.584
-5.612 -8.024 2.408
-5.085 -6.940 1.870
-5.690 -8.071 2.388
-10.111 -7.268 -2.822
-10.126 -7.567 -2.547
-9.727 -7.657 -2.056
-9.683 -7.349 -2.312
-9.607 -7.687 -1.905
-9.727 -7.657 -2.056
-9.544 -7.374 -2.148
-4.859 -7.715 2.858
-9.714 -7.665 -2.034
-10.112 -7.574 -2.526
-9.550 -7.390 -2.138
-10.112 -7.572 -2.529
-10.112 -7.570 -2.530
-9.690 -7.349 -2.319
-9.713 -7.663 -2.036
-9.551 -7.389 -2.140
-9.714 -7.663 -2.036
-10.113 -7.573 -2.528
-10.112 -7.572 -2.528
-9.714 -7.664 -2.035
-9.714 -7.664 -2.035
-9.713 -7.664 -2.036
-9.714 -7.664 -2.036
-8.739 -7.375 -1.347
-9.550 -7.389 -2.138
-6.447 -6.071 -0.374
-10.113 -7.572 -2.529
-10.113 -7.573 -2.528
-9.551 -7.396 -2.132
-8.094 -7.783 -0.288
-7.878 -7.815 -0.040
-8.164 -7.130 -1.021
-7.248 -7.314 0.082
-7.876 -7.814 -0.039
-6.662 -6.065 -0.595
-6.970 -6.351 -0.627
-7.941 -7.378 -0.548
-7.878 -7.816 -0.040
-7.878 -7.816 -0.040
-7.878 -7.816 -0.040
-8.094 -7.784 -0.287
-7.211 -7.212 0.009
-4.858 -7.710 2.854
-4.705 -6.928 2.232
-7.878 -7.816 -0.040
-7.510 -7.245 -0.249
-7.510 -7.245 -0.249
-4.858 -7.710 2.854
-7.941 -7.375 -0.551
-5.597 -6.942 1.363
-8.188 -7.156 -1.016
-7.731 -7.408 -0.309
-7.117 -7.651 0.551
-4.242 -7.257 3.018
-8.191 -7.151 -1.023
-8.191 -7.152 -1.023
-8.426 -7.325 -1.076
-5.541 -6.937 1.414
-4.460 -6.408 1.943
-4.242 -7.234 2.995
-8.079 -7.775 -0.281
-4.331 -7.500 3.182
-7.950 -7.370 -0.565
-8.048 -7.603 -0.436
-6.678 -6.066 -0.610
-5.536 -6.938 1.419
-5.536 -6.938 1.420
-9.546 -7.375 -2.149
-10.095 -7.561 -2.522
-10.094 -7.560 -2.523
-4.224 -7.207 2.987
-10.094 -7.562 -2.521
-10.095 -7.560 -2.523
-6.578 -7.819 1.239
-7.486 -7.249 -0.221
-8.047 -7.619 -0.420
-7.428 -7.865 0.445
-10.095 -7.560 -2.523
-6.577 -7.814 1.236
-5.540 -6.937 1.416
-7.486 -7.249 -0.221
-7.953 -7.378 -0.560
-8.190 -7.152 -1.022
-9.545 -7.376 -2.147
-9.547 -7.373 -2.151
-9.568 -7.685 -1.868
-5.533 -6.939 1.424
-6.582 -7.816 1.233
-9.568 -7.683 -1.870
-9.671 -7.426 -2.222
-10.095 -7.560 -2.524
-5.533 -6.939 1.425
-4.224 -7.246 3.026
-5.533 -6.939 1.424
-9.694 -7.654 -2.027
-4.223 -7.269 3.049
-8.881 -7.746 -1.119
-5.533 -6.939 1.424
-5.533 -6.933 1.418
-9.694 -7.653 -2.027
-8.845 -7.473 -1.348
-5.533 -6.939 1.424
-7.601 -7.799 0.204
-9.550 -7.376 -2.151
-4.327 -7.500 3.187
-5.533 -6.939 1.424
-5.533 -6.939 1.424
-4.138 -6.358 2.230
-6.582 -7.812 1.228
-4.373 -7.318 2.967
-7.063 -7.684 0.639
-7.862 -7.806 -0.034
-6.452 -7.771 1.318
-4.241 -7.252 3.014
-6.580 -7.823 1.240
-5.540 -6.937 1.416
-5.540 -6.937 1.416
-4.220 -6.598 2.391
-7.430 -7.860 0.438
-9.573 -7.686 -1.873
-5.533 -6.939 1.424
-8.184 -7.626 -0.550
-4.221 -6.555 2.350
-5.536 -6.938 1.419
-9.573 -7.684 -1.874
-10.095 -7.561 -2.522
-5.631 -7.781 2.142
-5.533 -6.939 1.424
-8.180 -7.625 -0.547
-9.672 -7.410 -2.239
-9.673 -7.433 -2.216
-9.574 -7.685 -1.874
-9.695 -7.654 -2.027
-5.533 -6.939 1.424
-9.551 -7.378 -2.151
-8.184 -7.625 -0.551
-9.551 -7.379 -2.150
-9.552 -7.379 -2.150
-5.533 -6.939 1.424
-5.532 -6.940 1.426
-9.574 -7.685 -1.875
-4.224 -7.158 2.940
-9.573 -7.685 -1.873
-5.533 -6.939 1.424
-4.854 -7.712 2.860
-4.457 -6.632 2.191
-6.243 -7.877 1.640
-8.190 -7.616 -0.565
-4.611 -7.488 2.880
-4.852 -7.712 2.862
-4.852 -7.712 2.862
-8.283 -7.623 -0.652
-8.188 -7.622 -0.559
-4.846 -7.716 2.872
-8.188 -7.616 -0.565
-7.528 -7.780 0.259
-6.524 -7.776 1.251
-6.525 -7.781 1.254
-8.135 -7.153 -0.967
-8.069 -7.581 -0.468
-5.625 -6.954 1.347
-6.299 -7.865 1.572
-5.625 -6.953 1.346
-8.303 -7.625 -0.671
-9.724 -7.655 -2.055
-5.619 -6.955 1.355
-5.619 -6.955 1.355
-5.710 -8.097 2.375
-5.619 -6.955 1.355
-9.544 -7.374 -2.148
-5.696 -8.096 2.389
-5.589 -6.945 1.374
-6.294 -7.912 1.624
-4.240 -6.578 2.357
-5.253 -7.040 1.783
-5.540 -6.938 1.416
-8.185 -7.625 -0.552
-7.595 -7.345 -0.248
-5.536 -6.942 1.424
-5.536 -6.938 1.420
-9.695 -7.653 -2.028
-10.095 -7.560 -2.523
-9.552 -7.410 -2.118
-5.533 -6.939 1.425
-6.453 -7.768 1.315
-7.489 -7.248 -0.226
-7.489 -7.249 -0.224
-7.728 -7.411 -0.302
-6.452 -7.772 1.320
-5.539 -6.938 1.417
-6.471 -7.978 1.512
-7.426 -7.861 0.443
-9.548 -7.371 -2.155
-10.094 -7.559 -2.524
-7.871 -7.325 -0.528
-5.532 -6.939 1.425
-6.266 -7.950 1.691
-5.540 -6.938 1.416
-9.551 -7.383 -2.145
-5.533 -6.939 1.425
-5.533 -6.939 1.425
-8.079 -7.774 -0.283
-6.580 -7.812 1.231
-7.731 -7.412 -0.304
-4.031 -6.271 2.263
-5.541 -6.938 1.416
-4.376 -7.291 2.938
-4.516 -7.806 3.297
-4.635 -7.420 2.788
-9.549 -7.378 -2.148
-5.533 -6.939 1.425
-6.574 -7.795 1.220
-5.540 -6.937 1.416
-5.540 -6.938 1.416
-4.242 -7.233 2.995
-7.257 -7.272 0.026
-4.241 -6.614 2.386
-6.452 -7.773 1.321
-5.540 -6.936 1.415
-4.370 -7.734 3.374
-7.312 -7.500 0.199
-8.829 -7.617 -1.195
-5.534 -6.939 1.424
-8.183 -7.625 -0.550
-8.183 -7.625 -0.550
-8.026 -7.623 -0.394
-7.430 -7.865 0.444
-9.693 -7.650 -2.030
-5.533 -6.939 1.424
-5.318 -7.138 1.840
-4.031 -6.280 2.273
-7.948 -7.432 -0.529
-8.186 -7.630 -0.548
-4.806 -7.195 2.411
-4.638 -7.451 2.817
-5.536 -6.938 1.420
-7.424 -7.859 0.443
-6.278 -7.876 1.604
-7.423 -7.858 0.443
-9.574 -7.684 -1.876
-5.533 -6.939 1.425
-7.421 -7.857 0.444
-5.532 -6.939 1.426
-7.424 -7.861 0.446
-5.532 -6.941 1.428
-9.550 -7.372 -2.156
-5.636 -7.390 1.756
-5.021 -7.246 2.236
-5.540 -6.937 1.416
-7.731 -7.409 -0.306
-5.319 -7.602 2.296
-8.908 -7.751 -1.141
-7.198 -7.802 0.629
-6.577 -7.812 1.234
-7.422 -7.864 0.449
-6.579 -7.815 1.235
-7.221 -7.307 0.101
-4.604 -7.151 2.567
-7.603 -7.804 0.208
-7.824 -7.431 -0.376
-5.541 -6.937 1.414
-7.859 -7.780 -0.057
-5.541 -6.937 1.415
-7.827 -7.432 -0.380
-4.370 -7.735 3.375
-7.427 -7.860 0.441
-4.644 -7.320 2.693
-6.578 -7.816 1.236
-4.041 -6.290 2.271
-7.861 -7.805 -0.034
-6.451 -7.776 1.325
-5.277 -7.390 2.122
-4.503 -7.153 2.670
-4.370 -7.734 3.374
-6.270 -7.875 1.611
-6.453 -7.770 1.317
-4.370 -7.735 3.374
-7.730 -7.411 -0.305
-8.078 -7.777 -0.279
-6.456 -7.768 1.313
-6.273 -7.881 1.614
-5.177 -7.415 2.245
-5.540 -6.937 1.416
-5.600 -7.758 2.164
-4.663 -7.445 2.787
-5.282 -7.183 1.912
-5.792 -8.331 2.552
-4.370 -7.735 3.374
-7.528 -7.630 0.103
-6.453 -7.771 1.318
-7.731 -7.413 -0.303
-5.539 -6.948 1.428
-5.543 -7.713 2.188
-4.328 -6.521 2.208
-4.241 -7.247 3.009
-5.176 -7.560 2.375
-7.849 -7.429 -0.405
-4.358 -6.580 2.241
-9.686 -7.355 -2.307
-3.747 -5.820 2.095
-3.565 -5.783 2.240
-3.379 -6.135 2.767
-3.664 -6.362 2.721
-3.634 -6.225 2.602
-3.380 -6.143 2.772
-3.526 -6.034 2.523
-3.859 -6.362 2.526
-3.607 -6.194 2.600
-3.835 -6.366 2.553
-3.467 -5.161 1.710
-4.433 -7.478 3.062
-3.662 -5.861 2.221
-3.609 -6.191 2.594
-3.543 -5.157 1.628
-3.466 -5.161 1.710
-3.799 -6.378 2.601
-3.859 -6.364 2.527
-2.564 -5.524 2.976
-3.429 -6.271 2.864
-4.433 -7.484 3.068
-3.567 -5.822 2.277
-3.510 -5.772 2.284
-3.512 -5.811 2.322
-1.589 -4.891 3.320
-3.859 -6.362 2.525
-3.368 -6.090 2.732
-3.508 -5.811 2.325
-4.854 -6.065 1.178
-6.715 -9.491 2.736
-2.778 -5.381 2.626
-3.362 -5.733 2.384
-6.715 -9.490 2.735
-7.190 -8.920 1.722
-4.096 -6.366 2.262
-3.977 -6.400 2.414
-3.662 -6.357 2.719
-4.942 -8.134 3.175
-6.705 -9.484 2.740
-3.568 -5.817 2.271
-2.826 -6.129 3.324
-3.529 -6.039 2.525
-3.518 -5.820 2.325
-3.546 -5.159 1.627
-5.865 -8.821 2.954
-4.433 -7.477 3.060
-2.834 -5.407 2.597
-6.690 -9.468 2.732
-6.620 -10.596 3.956
-4.964 -6.056 1.106
-4.660 -6.021 1.376
-3.663 -5.377 1.730
-6.815 -9.502 2.649
-3.680 -6.363 2.706
-4.396 -7.629 3.248
-5.761 -8.112 2.334
-2.550 -5.522 2.989
-3.558 -5.158 1.614
-6.693 -9.490 2.757
-3.523 -5.149 1.641
-4.077 -6.369 2.284
-7.081 -9.505 2.389
-3.381 -6.174 2.800
-5.960 -8.903 2.944
-6.819 -9.495 2.637
-3.388 -6.138 2.760
-3.517 -5.046 1.546
-2.844 -6.128 3.305
-3.567 -5.800 2.255
-6.697 -9.491 2.755
-3.875 -6.362 2.510
-3.643 -6.221 2.589
-4.427 -7.479 3.068
-5.759 -8.115 2.338
-3.566 -5.799 2.254
-3.845 -6.367 2.544
-3.842 -7.222 3.392
-3.875 -6.363 2.510
-3.643 -6.215 2.585
-5.663 -8.331 2.653
-4.135 -5.952 1.833
-3.843 -6.367 2.546
-2.223 -5.769 3.569
-3.746 -5.166 1.434
-3.875 -6.362 2.509
-3.568 -5.808 2.262
-4.276 -6.453 2.194
-3.139 -5.406 2.289
-2.712 -5.352 2.662
-2.690 -6.210 3.500
-4.679 -6.489 1.831
-3.529 -5.152 1.638
-3.999 -7.389 3.366
-3.398 -6.155 2.782
-3.568 -5.820 2.275
-3.529 -5.156 1.641
-3.435 -6.344 2.928
-3.634 -6.239 2.497
-3.901 -7.328 3.435
-2.844 -6.130 3.307
-3.484 -5.144 1.677
-3.871 -7.284 3.427
-3.686 -7.041 3.371
-3.511 -5.804 2.316
-3.958 -6.400 2.433
-4.276 -6.452 2.193
-4.427 -7.479 3.068
-4.953 -8.106 3.129
-3.456 -6.098 2.647
-3.481 -5.158 1.692
-5.756 -8.115 2.341
-3.749 -5.832 2.105
-4.473 -7.398 2.918
-3.329 -6.345 3.033
-3.568 -5.808 2.262
-2.844 -6.129 3.305
-4.276 -6.452 2.193
-3.810 -6.379 2.590
-4.629 -6.404 1.790
-4.172 -5.555 1.407
-3.477 -6.041 2.578
-3.880 -6.360 2.502
-1.880 -5.069 3.201
-3.556 -5.757 2.220
-3.363 -6.115 2.762
-3.393 -6.138 2.755
-2.877 -5.525 2.670
-4.389 -7.669 3.299
-3.519 -5.137 1.636
-3.509 -5.796 2.310
-6.821 -9.486 2.629
-3.393 -6.137 2.754
-6.095 -8.987 2.859
-3.393 -6.141 2.758
-6.693 -9.421 2.678
-3.830 -7.259 3.440
-4.328 -8.318 3.990
-2.226 -5.749 3.546
-2.226 -5.743 3.541
-3.481 -5.161 1.695
-3.538 -6.042 2.518
-3.880 -6.362 2.504
-5.904 -8.815 2.897
-2.552 -5.527 2.992
-2.226 -5.742 3.539
-3.436 -6.087 2.651
-3.837 -7.204 3.384
-3.538 -6.041 2.517
-6.699 -9.480 2.741
-3.855 -7.245 3.410
-4.207 -5.973 1.785
-3.381 -5.734 2.368
-3.362 -6.095 2.743
-2.517 -5.575 3.081
-6.699 -9.476 2.738
-3.440 -6.348 2.928
-3.699 -5.175 1.490
-3.532 -6.040 2.523
-3.575 -5.794 2.241
-5.479 -7.836 2.336
-3.796 -7.171 3.398
-3.880 -6.361 2.504
-3.576 -5.800 2.246
-4.284 -7.649 3.359
-3.533 -6.039 2.521
-6.483 -9.017 2.494
-2.136 -4.937 2.820
-4.056 -6.243 2.205
-3.116 -5.847 2.757
-2.669 -5.485 2.843
-3.476 -6.040 2.579
-1.894 -4.557 2.687
-2.504 -5.159 2.675
-3.786 -7.210 3.423
-3.163 -5.520 2.372
-3.577 -5.816 2.261
-3.156 -5.365 2.228
-3.576 -5.807 2.253
-3.383 -5.746 2.379
-6.122 -8.954 2.820
-3.483 -5.162 1.693
-3.483 -5.162 1.693
-3.538 -6.038 2.514
-5.983 -8.898 2.916
-3.535 -5.186 1.663
-3.377 -7.327 3.965
-4.325 -7.800 3.482
-6.461 -6.428 -0.018
-6.461 -6.428 -0.017
-6.461 -6.428 -0.017
-5.932 -5.531 -0.379
-6.461 -6.428 -0.017
-6.461 -6.428 -0.017
-6.461 -6.428 -0.017
-5.835 -7.705 1.863
-6.461 -6.428 -0.017
-6.461 -6.428 -0.017
-6.461 -6.428 -0.017
-6.209 -6.704 0.513
-5.916 -5.526 -0.369
-6.209 -6.700 0.509
-8.356 -8.889 0.539
-6.461 -6.428 -0.017
-6.461 -6.428 -0.017
-5.932 -5.530 -0.380
-6.461 -6.428 -0.017
-5.425 -7.687 2.272
-8.121 -8.975 0.869
-5.939 -5.542 -0.375
-5.933 -5.530 -0.381
-5.425 -7.685 2.271
-6.465 -6.426 -0.024
-6.465 -6.426 -0.024
-5.933 -5.530 -0.381
-8.364 -8.894 0.535
-6.465 -6.426 -0.024
-6.465 -6.426 -0.024
-8.356 -8.889 0.539
-6.216 -6.693 0.495
-5.933 -5.530 -0.381
-6.465 -6.426 -0.024
-6.465 -6.426 -0.024
-6.465 -6.426 -0.024
-6.465 -6.426 -0.024
-7.574 -8.791 1.204
-7.437 -8.484 1.065
-6.157 -6.699 0.560
-5.421 -7.712 2.302
-6.476 -6.427 -0.033
-6.464 -6.426 -0.023
-8.364 -8.894 0.535
-6.464 -6.426 -0.023
-5.937 -5.529 -0.387
-6.157 -6.700 0.561
-6.390 -6.406 0.032
-7.438 -8.480 1.062
-5.418 -7.682 2.274
-4.311 -4.928 0.625
-6.464 -6.426 -0.023
-8.356 -8.888 0.538
-6.464 -6.426 -0.023
-6.464 -6.426 -0.023
-7.399 -8.416 1.035
-5.418 -7.690 2.282
-5.677 -6.618 0.956
-5.933 -5.531 -0.381
-5.418 -7.678 2.271
-5.933 -5.531 -0.381
-5.922 -5.936 0.030
-6.464 -6.426 -0.023
-5.174 -6.683 1.527
-7.434 -8.452 1.035
-4.644 -8.275 3.629
-5.985 -7.429 1.450
-7.410 -8.292 0.894
-7.409 -8.422 1.030
-5.937 -5.530 -0.386
-8.356 -8.889 0.538
-6.153 -6.710 0.576
-5.937 -5.531 -0.385
-8.356 -8.889 0.539
-3.838 -4.782 0.958
-5.413 -7.657 2.252
-7.437 -8.480 1.062
-6.757 -8.622 1.853
-5.937 -5.531 -0.385
-6.446 -6.361 -0.069
-7.572 -8.819 1.237
-5.933 -5.531 -0.380
-6.207 -6.704 0.515
-5.916 -5.484 -0.412
-5.385 -5.233 -0.145
-3.982 -6.279 2.312
-7.423 -8.481 1.073
-5.416 -7.674 2.268
-5.624 -6.543 0.934
-6.157 -6.695 0.556
-6.465 -6.426 -0.024
-6.299 -8.773 2.429
-6.465 -6.426 -0.024
-6.465 -6.426 -0.024
-5.426 -7.752 2.341
-5.938 -5.530 -0.386
-6.476 -6.427 -0.034
-5.934 -5.529 -0.383
-3.873 -4.731 0.877
-6.390 -6.404 0.029
-8.356 -8.889 0.538
-5.918 -5.526 -0.370
-5.418 -7.676 2.268
-6.465 -6.426 -0.024
-5.645 -6.534 0.904
-7.803 -8.847 1.028
-6.465 -6.426 -0.024
-8.363 -8.893 0.536
-5.916 -5.531 -0.362
-5.918 -5.528 -0.368
-3.975 -6.723 2.774
-6.466 -6.426 -0.024
-6.466 -6.426 -0.024
-7.574 -8.786 1.199
-4.533 -7.142 2.621
-5.420 -7.683 2.273
-7.574 -8.792 1.205
-6.466 -6.426 -0.024
-6.465 -6.426 -0.024