-15.807 -14.178 -0.656
-13.720 -12.025 -0.753
-15.655 -14.157 -0.537
-18.264 -15.269 -2.007
-13.720 -12.038 -0.740
-17.942 -15.294 -1.658
-15.991 -14.920 -0.103
-14.811 -12.839 -1.050
-16.607 -15.249 -0.339
-11.243 -10.299 0.040
-17.934 -15.289 -1.648
-17.059 -15.661 -0.390
-16.795 -14.428 -1.402
-15.149 -12.751 -1.400
-14.446 -13.308 -0.252
-14.976 -11.758 -2.260
-13.126 -12.020 -0.160
-16.192 -13.823 -1.378
-17.940 -15.302 -1.647
-12.590 -11.429 -0.162
-17.571 -16.461 -0.132
-14.485 -12.732 -0.750
-18.251 -15.267 -1.996
-17.060 -15.663 -0.390
-17.059 -15.667 -0.384
-15.998 -14.097 -0.960
-16.973 -14.768 -1.194
-16.947 -15.611 -0.335
-17.022 -14.764 -1.254
-14.487 -12.738 -0.745
-17.002 -14.781 -1.221
-17.735 -16.711 -0.022
-17.695 -16.909 0.206
-13.725 -13.636 0.787
-13.492 -13.126 0.642
-17.945 -16.872 -0.084
-15.914 -14.793 -0.148
-16.457 -14.718 -0.746
-14.808 -13.620 -0.218
-17.154 -15.044 -1.108
-17.716 -16.933 0.211
-16.322 -14.794 -0.525
-15.224 -14.280 -0.050
-16.494 -14.979 -0.518
-13.336 -12.932 0.221
-16.666 -14.968 -0.718
-16.631 -15.819 0.067
-17.252 -16.975 0.577
-19.242 -18.289 0.046
-17.154 -15.043 -1.108
-16.722 -16.926 1.072
-16.046 -15.454 0.413
-17.154 -15.044 -1.108
-18.211 -17.408 0.189
-19.610 -18.034 -0.596
-13.996 -12.950 -0.146
-17.161 -15.245 -0.921
-17.741 -17.251 0.547
-17.154 -15.044 -1.108
-19.050 -18.189 0.080
-13.717 -12.598 -0.126
-12.601 -11.349 -0.250
-13.535 -13.126 0.598
-16.137 -15.322 0.208
-16.679 -15.051 -0.670
-17.154 -15.044 -1.108
-16.121 -15.504 0.388
-16.613 -14.975 -0.651
-13.197 -11.881 -0.400
-15.674 -14.791 0.061
-16.790 -15.466 -0.315
-13.355 -12.664 0.315
-16.669 -15.090 -0.640
-16.258 -15.458 0.206
-15.141 -14.295 0.145
-11.283 -10.759 0.316
-15.975 -14.912 -0.101
-15.882 -14.806 -0.110
-13.433 -13.093 0.675
-13.311 -12.665 0.360
-15.872 -15.386 0.493
-19.852 -19.124 0.271
-16.642 -15.855 0.082
-16.381 -15.599 0.221
-15.093 -13.853 -0.292
-15.195 -12.222 -1.963
-16.805 -15.402 -0.399
-13.782 -12.522 -0.327
-13.296 -12.654 0.373
-17.637 -16.840 0.205
-15.962 -14.863 -0.094
-13.757 -12.536 -0.239
-16.611 -14.988 -0.717
-14.998 -13.945 -0.288
-16.280 -15.495 0.225
-16.019 -15.268 0.251
-15.784 -15.109 0.293
-19.263 -18.218 -0.055
-15.482 -15.262 0.782
-10.357 -9.818 0.468
-16.667 -14.960 -0.737
-13.675 -12.554 -0.148
-12.960 -13.089 1.013
-14.938 -13.680 -0.270
-15.676 -14.577 -0.094
-16.962 -16.221 0.240
-15.814 -14.590 -0.220
-15.667 -14.533 -0.119
-15.815 -14.885 0.055
-15.654 -14.729 0.047
-18.863 -17.996 0.098
-13.491 -13.130 0.646
-16.446 -14.746 -0.714
-16.509 -15.350 -0.159
-17.865 -16.991 0.129
-10.301 -10.203 0.894
-12.620 -12.734 1.060
-16.600 -14.624 -1.036
-13.658 -11.590 -1.085
-17.354 -16.462 0.133
-16.189 -15.368 0.191
-18.211 -17.406 0.187
-15.852 -14.782 -0.125
-17.149 -15.033 -1.112
-18.144 -17.419 0.268
-16.091 -15.499 0.417
-15.891 -14.746 -0.155
-13.640 -12.307 -0.351
-14.170 -13.971 0.773
-16.253 -14.682 -0.565
-16.174 -14.301 -0.903
-16.530 -15.412 -0.208
-16.089 -15.454 0.369
-16.203 -14.718 -0.471
-12.345 -11.249 -0.082
-11.414 -11.204 0.793
-16.762 -16.505 0.681
-18.357 -17.100 -0.269
-13.807 -13.449 0.606
-15.622 -14.731 0.113
-19.192 -18.238 0.049
-13.669 -11.597 -1.091
-15.191 -12.222 -1.959
-16.063 -14.884 -0.188
-15.677 -14.533 -0.129
-10.656 -10.902 1.255
-16.571 -15.098 -0.564
-16.029 -15.491 0.473
-15.656 -14.792 0.080
-14.340 -13.141 -0.197
-11.805 -11.489 0.669
-13.260 -12.881 0.602
-16.045 -15.505 0.471
-14.899 -13.869 -0.197
-10.314 -10.325 0.992
-16.243 -15.340 0.112
-17.356 -16.799 0.434
-15.886 -14.846 -0.036
-16.254 -15.070 -0.182
-18.190 -15.319 -1.938
-11.614 -10.530 -0.099
-16.449 -14.748 -0.715
-12.497 -11.917 0.208
-13.635 -11.699 -1.027
-15.124 -14.658 0.528
-13.799 -12.616 -0.209
-11.852 -11.937 1.047
-12.991 -11.500 -0.527
-11.692 -10.980 0.272
-15.966 -15.395 0.446
-11.360 -10.388 0.025
-15.808 -14.560 -0.241
-13.932 -12.349 -0.590
-18.346 -17.165 -0.162
-14.731 -14.017 0.269
-18.331 -17.116 -0.228
-15.451 -13.683 -0.774
-15.672 -14.995 0.319
-16.083 -14.695 -0.404
-11.702 -10.645 -0.072
-16.581 -15.352 -0.229
-14.841 -14.122 0.234
-10.083 -9.104 0.033
-16.656 -15.790 0.134
-17.840 -16.993 0.157
-16.171 -15.340 0.190
-12.442 -12.886 1.343
-12.809 -11.409 -0.553
-12.953 -13.089 1.019
-16.970 -15.874 -0.118
-16.533 -15.631 0.103
-16.003 -15.377 0.380
-17.341 -16.449 0.134
-16.026 -15.267 0.241
-16.084 -15.492 0.418
-13.329 -12.599 0.278
-18.151 -17.419 0.257
-13.488 -12.408 -0.094
-13.168 -12.029 -0.164
-14.898 -15.087 1.195
-16.840 -15.790 -0.048
-18.209 -17.407 0.190
-11.531 -10.512 -0.001
-14.961 -15.248 1.289
-17.209 -16.580 0.366
-12.021 -10.949 -0.058
-15.168 -13.956 -0.325
-16.097 -15.246 -0.009
-16.722 -14.856 -0.877
-16.664 -15.789 0.125
-17.618 -16.753 0.119
-14.938 -14.583 0.607
-15.848 -14.573 -0.271
-16.213 -14.835 -0.370
-14.925 -14.084 0.144
-15.519 -14.731 0.162
-16.964 -16.033 0.036
-17.341 -16.470 0.118
-15.690 -15.130 0.441
-10.592 -9.852 0.246
-16.659 -15.795 0.138
-11.425 -10.389 -0.029
-14.161 -12.657 -0.505
-13.662 -11.587 -1.092
-15.448 -13.681 -0.775
-15.401 -13.068 -1.377
-12.405 -11.365 -0.039
-13.312 -12.663 0.357
-15.435 -13.690 -0.762
-13.860 -12.555 -0.327
-12.398 -11.427 0.029
-10.099 -9.097 0.013
-14.890 -14.279 0.384
-12.288 -11.221 -0.052
-14.018 -12.643 -0.385
-16.932 -15.443 -0.493
-12.695 -11.691 -0.019
-14.171 -13.949 0.694
-14.986 -14.515 0.502
-12.243 -11.792 0.391
-14.068 -13.074 -0.037
-11.448 -11.201 0.706
-16.534 -15.640 0.111
-14.568 -14.103 0.545
-16.461 -15.352 -0.107
-13.747 -12.916 0.187
-15.477 -14.798 0.270
-14.114 -13.188 -0.144
-16.561 -15.583 -0.075
-15.831 -15.288 0.456
-19.019 -18.137 0.134
-11.990 -12.295 1.232
-17.976 -17.406 0.422
-14.488 -14.151 0.642
-13.662 -11.593 -1.086
-14.312 -13.470 0.091
-11.098 -10.239 0.005
-14.960 -14.532 0.540
-15.449 -13.672 -0.787
-13.049 -11.287 -0.804
-13.191 -13.148 0.900
-17.742 -16.849 0.069
-17.706 -16.799 0.089
-16.460 -15.353 -0.105
-16.503 -15.787 0.281
-15.475 -14.808 0.287
-18.765 -18.605 0.712
-14.667 -14.055 0.299
-16.509 -14.810 -0.713
-16.528 -15.679 0.069
-17.348 -16.833 0.360
-11.803 -11.441 0.616
-13.972 -12.311 -0.667
-12.807 -11.253 -0.543
-14.171 -13.206 -0.002
-15.968 -14.493 -0.554
-12.776 -12.153 0.355
-16.039 -15.507 0.476
-15.441 -14.346 -0.089
-15.475 -14.792 0.284
-17.394 -16.167 -0.206
-15.008 -14.279 0.156
-15.907 -15.352 0.466
-15.113 -14.654 0.562
-16.000 -15.286 0.286
-15.392 -14.749 0.322
-17.119 -16.624 0.513
-10.100 -9.342 0.239
-16.128 -15.492 0.368
-15.651 -14.673 -0.062
-17.106 -16.920 0.808
-17.394 -16.157 -0.216
-15.730 -14.815 0.053
-13.394 -12.993 0.443
-18.021 -17.276 0.254
-18.427 -17.780 0.321
-12.365 -10.092 -1.286
-17.159 -16.912 0.721
-14.973 -14.289 0.298
-15.343 -14.488 0.160
-9.769 -9.426 0.664
-17.490 -16.938 0.426
-16.042 -15.456 0.419
-16.841 -15.434 -0.410
-15.762 -14.517 -0.243
-15.784 -14.696 -0.082
-17.700 -16.909 0.201
-11.747 -10.979 0.207
-15.774 -14.326 -0.474
-15.369 -14.760 0.338
-15.655 -14.893 0.225
-13.924 -13.030 0.054
-16.506 -15.274 -0.244
-13.191 -13.149 0.901
-14.879 -14.396 0.415
-15.344 -14.495 0.166
-10.172 -9.894 0.718
-14.568 -14.266 0.544
-16.857 -17.117 1.171
-15.900 -14.853 -0.042
-13.982 -12.302 -0.686
-13.153 -12.638 0.446
-15.893 -15.058 0.172
-15.803 -14.783 -0.079
-15.432 -14.798 0.333
-15.450 -15.244 0.722
-11.653 -11.809 1.142
-14.909 -14.154 0.240
-16.225 -15.052 -0.158
-17.010 -15.444 -0.555
-14.986 -13.871 -0.109
-15.889 -15.223 0.292
-17.333 -16.941 0.611
-14.334 -13.528 0.184
-12.747 -11.238 -0.498
-12.996 -11.507 -0.523
-12.747 -11.233 -0.504
-9.618 -9.643 0.977
-15.290 -14.337 0.052
-13.651 -12.933 0.200
-13.340 -12.030 -0.336
-10.903 -10.722 0.644
-15.849 -15.128 0.286
-14.978 -14.278 0.289
-18.988 -18.352 0.320
-16.460 -15.341 -0.117
-14.687 -14.250 0.429
-13.901 -13.211 0.316
-17.391 -16.524 0.149
-16.634 -15.634 0.007
-16.633 -15.781 0.150
-12.826 -11.895 0.051
-17.661 -16.847 0.176
-15.298 -14.637 0.353
-13.110 -12.073 -0.071
-15.783 -14.754 -0.085
-19.656 -18.031 -0.645
-15.113 -14.015 -0.338
-15.783 -14.703 -0.073
-12.798 -11.495 -0.330
-15.298 -14.637 0.353
-16.716 -16.643 0.887
-15.853 -14.944 0.081
-13.084 -12.217 0.144
-13.421 -12.903 0.452
-11.771 -11.303 0.532
-15.903 -14.706 -0.190
-13.193 -13.146 0.897
-12.420 -12.004 0.568
-12.728 -10.910 -0.830
-12.106 -11.638 0.521
-16.141 -15.193 -0.041
-13.684 -12.585 -0.129
-12.728 -10.902 -0.840
-14.675 -13.590 -0.083
-11.704 -11.221 0.510
-15.290 -14.349 0.065
-11.512 -10.463 -0.036
-19.280 -18.271 0.005
-16.608 -14.632 -1.038
-15.764 -15.168 0.375
-11.953 -10.148 -0.816
-11.367 -10.859 0.456
-13.192 -13.148 0.900
-17.967 -17.096 0.118
-17.560 -16.871 0.305
-14.911 -14.409 0.500
-14.928 -14.127 0.186
-18.206 -17.136 -0.087
-12.155 -10.943 -0.222
-13.538 -12.396 -0.162
-18.250 -16.966 -0.276
-15.290 -14.369 0.086
-17.059 -17.064 0.899
-13.192 -13.141 0.897
-15.790 -14.962 0.119
-15.472 -14.791 0.286
-13.514 -12.599 0.076
-14.466 -13.923 0.415
-11.963 -11.202 0.233
-12.790 -12.895 0.879
-11.769 -11.076 0.279
-13.660 -12.785 0.126
-10.965 -9.861 -0.111
-15.293 -14.348 0.062
-13.192 -12.462 0.261
-17.075 -15.968 -0.118
-16.184 -15.561 0.374
-10.942 -9.334 -0.611
-12.779 -12.600 0.780
-16.257 -14.489 -0.776
-18.141 -17.531 0.333
-13.538 -13.329 0.803
-11.960 -9.972 -1.033
-13.683 -12.621 -0.065
-13.794 -12.616 -0.196
-19.013 -17.573 -0.472
-12.419 -11.340 -0.067
-11.962 -10.266 -0.704
-9.988 -8.988 0.005
-12.987 -12.043 0.053
-15.392 -13.409 -0.995
-15.069 -13.937 -0.294
-13.204 -12.778 0.410
-16.556 -16.332 0.553
-15.909 -15.210 0.306
-16.555 -15.879 0.324
-17.955 -17.352 0.395
-17.502 -16.045 -0.458
-16.021 -15.259 0.243
-14.645 -13.744 0.087
-15.866 -14.987 0.116
-13.234 -12.861 0.631
-13.756 -12.782 0.020
-14.748 -13.837 0.041
-16.076 -13.929 -1.143
-17.367 -15.972 -0.387
-11.411 -9.919 -0.503
-15.686 -15.083 0.393
-14.300 -14.004 0.696
-12.292 -11.541 0.162
-14.666 -14.310 0.596
-15.604 -14.834 0.231
-12.858 -11.622 -0.237
-12.529 -12.719 1.142
-14.475 -13.775 0.222
-12.794 -11.550 -0.284
-15.169 -14.630 0.391
-16.826 -16.749 0.906
-14.562 -13.544 -0.049
-16.591 -14.637 -1.016
-10.787 -10.067 0.218
-14.629 -13.906 0.256
-16.066 -15.685 0.643
-17.087 -16.377 0.217
-15.478 -14.854 0.305
-17.938 -17.413 0.466
-15.206 -13.465 -0.723
-16.535 -15.287 -0.260
-13.155 -11.859 -0.300
-15.067 -14.455 0.363
-15.164 -14.000 -0.154
-15.206 -13.462 -0.725
-13.931 -12.405 -0.509
-13.365 -12.324 -0.024
-13.662 -12.263 -0.465
-13.354 -12.324 -0.012
-13.803 -12.428 -0.393
-14.253 -12.305 -0.969
-13.192 -11.317 -1.025
-14.191 -12.307 -0.904
-12.597 -11.377 -0.209
-13.354 -12.325 -0.011
-13.536 -11.460 -1.347
-12.768 -10.811 -0.984
-12.905 -11.531 -0.450
-13.758 -12.529 -0.222
-11.655 -10.499 -0.161
-12.502 -11.162 -0.324
-12.866 -12.472 0.571
-13.715 -12.493 -0.216
-12.750 -11.549 -0.194
-12.866 -12.466 0.566
-13.813 -11.141 -1.677
-13.536 -11.458 -1.349
-12.540 -11.160 -0.363
-11.620 -10.492 -0.125
-13.923 -12.401 -0.505
-12.176 -11.295 0.113
-12.840 -11.618 -0.241
-12.502 -11.161 -0.325
-13.536 -11.458 -1.348
-13.345 -12.322 -0.008
-13.826 -11.812 -1.136
-11.815 -10.493 -0.305
-12.660 -11.068 -0.581
-14.190 -12.307 -0.904
-10.956 -9.648 -0.308
-13.192 -11.313 -1.028
-12.246 -11.076 -0.306
-13.536 -11.461 -1.346
-13.536 -11.459 -1.348
-12.947 -11.538 -0.488
-12.866 -12.464 0.564
-13.188 -12.330 0.159
-13.355 -11.138 -1.393
-13.733 -12.399 -0.379
-14.269 -11.373 -2.225
-13.498 -12.334 -0.183
-11.847 -10.195 -0.642
-13.655 -11.276 -1.528
-12.791 -11.532 -0.333
-14.191 -12.307 -0.904
-13.357 -12.326 -0.013
-11.421 -9.661 -0.794
-13.828 -11.818 -1.130
-11.852 -10.210 -0.634
-13.608 -12.223 -0.399
-13.535 -11.465 -1.340
-11.839 -10.492 -0.334
-12.146 -10.170 -0.965
-11.715 -10.196 -0.698
-12.599 -12.014 0.404
-12.862 -12.121 0.252
-12.749 -11.750 -0.034
-12.746 -11.489 -0.248
-13.505 -12.256 -0.265
-13.812 -12.391 -0.438
-13.002 -12.485 0.446
-13.508 -12.332 -0.183
-13.813 -12.377 -0.455
-12.334 -11.696 0.310
-13.356 -12.314 -0.026
-12.749 -11.553 -0.190
-12.917 -11.528 -0.466
-12.123 -11.268 0.138
-13.356 -12.313 -0.027
-13.488 -12.043 -0.534
-13.540 -12.334 -0.213
-12.294 -10.979 -0.305
-12.729 -11.060 -0.657
-11.899 -10.172 -0.718
-12.542 -11.105 -0.423
-13.933 -12.396 -0.519
-12.871 -12.471 0.564
-12.220 -11.800 0.542
-11.673 -10.494 -0.168
-12.751 -11.057 -0.683
-12.895 -11.669 -0.246
-11.651 -10.493 -0.162
-13.745 -11.573 -1.351
-11.643 -10.419 -0.249
-11.333 -9.975 -0.363
-12.568 -10.968 -0.602
-12.132 -10.132 -1.163
-13.540 -12.334 -0.214
-12.895 -11.668 -0.247
-13.357 -12.313 -0.029
-14.427 -13.695 0.099
-12.920 -11.879 -0.148
-11.674 -10.498 -0.164
-14.548 -11.640 -1.912
-13.645 -12.259 -0.454
-13.894 -12.400 -0.476
-13.637 -12.934 0.112
-12.519 -11.159 -0.349
-11.358 -10.307 -0.098
-12.474 -11.046 -0.455
-13.348 -12.312 -0.018
-13.637 -12.939 0.125
-11.840 -10.489 -0.340
-13.339 -12.262 -0.078
-11.871 -10.550 -0.409
-11.843 -10.310 -0.508
-13.595 -12.250 -0.407
-13.595 -12.250 -0.407
-13.933 -12.395 -0.520
-11.900 -10.174 -0.716
-13.552 -11.282 -1.415
-12.815 -11.849 0.017
-12.545 -12.040 0.454
-13.338 -12.262 -0.077
-13.177 -12.317 0.156
-11.755 -10.179 -0.755
-12.880 -12.274 0.229
-11.611 -10.488 -0.119
-13.638 -12.936 0.117
-14.128 -11.372 -2.081
-12.528 -11.898 0.386
-10.968 -9.774 -0.182
-12.603 -12.014 0.400
-11.899 -10.173 -0.717
-12.748 -11.490 -0.248
-11.901 -10.173 -0.718
-13.659 -12.371 -0.600
-13.545 -12.293 -0.321
-12.055 -12.105 1.051
-12.527 -11.154 -0.356
-13.553 -11.236 -1.457
-13.563 -12.609 0.001
-13.626 -11.694 -1.035
-12.338 -11.777 0.405
-11.930 -10.121 -1.105
-12.564 -11.153 -0.393
-11.872 -10.499 -0.348
-11.624 -10.508 -0.112
-13.584 -12.321 -0.274
-13.538 -12.335 -0.217
-11.732 -10.344 -0.393
-12.389 -11.783 0.395
-13.010 -12.489 0.439
-12.599 -12.013 0.403
-13.172 -11.327 -0.950
-13.547 -11.404 -1.217
-13.720 -11.344 -1.411
-13.583 -12.258 -0.387
-11.452 -10.418 -0.031
-13.583 -11.400 -1.257
-12.815 -11.860 0.028
-13.827 -11.631 -1.356
-12.490 -11.803 0.312
-10.131 -8.596 -0.507
-13.765 -12.451 -0.364
-14.253 -12.306 -0.969
-13.364 -12.320 -0.031
-13.543 -11.212 -1.463
-14.190 -12.307 -0.905
-14.047 -12.401 -0.629
-13.354 -12.326 -0.010
-12.659 -11.063 -0.588
-11.371 -9.785 -0.811
-13.052 -12.015 -0.056
-13.673 -12.402 -0.318
-13.228 -11.632 -0.776
-14.152 -11.735 -1.490
-12.565 -10.973 -0.594
-10.983 -9.591 -0.386
-12.894 -11.682 -0.233
-12.362 -11.787 0.426
-13.369 -12.323 -0.029
-13.534 -11.889 -0.662
-13.452 -12.164 -0.324
-13.813 -11.630 -1.351
-14.012 -11.759 -1.322
-11.755 -10.201 -0.545
-13.517 -12.555 0.036
-13.810 -12.446 -0.378
-13.158 -12.007 -0.205
-12.661 -11.068 -0.581
-12.922 -11.663 -0.282
-11.673 -10.494 -0.169
-13.964 -11.364 -1.933
-11.426 -10.404 -0.046
-14.021 -10.503 -2.500
-11.342 -9.866 -0.449
-12.119 -11.002 -0.108
-12.778 -11.768 -0.022
-11.907 -10.458 -0.422
-12.317 -10.824 -0.511
-11.518 -10.636 0.121
-12.556 -11.157 -0.382
-12.288 -11.001 -0.275
-13.138 -11.750 -0.407
-12.095 -12.100 1.007
-11.576 -10.466 -0.095
-13.646 -12.951 0.123
-12.528 -11.157 -0.356
-13.876 -11.338 -1.878
-11.822 -10.496 -0.321
-13.601 -11.255 -1.479
-12.839 -11.839 -0.024
-13.536 -12.255 -0.292
-12.546 -11.766 0.227
-13.505 -12.330 -0.182
-11.134 -9.524 -0.751
-11.899 -10.164 -0.725
-12.537 -10.619 -0.917
-10.865 -9.759 -0.091
-13.142 -11.937 -0.195
-12.754 -11.503 -0.240
-11.444 -9.912 -0.539
-11.724 -10.477 -0.234
-10.560 -8.756 -0.791
-12.795 -11.500 -0.354
-12.465 -11.989 0.462
-12.923 -10.788 -1.187
-11.900 -10.171 -0.720
-13.495 -12.217 -0.277
-11.944 -12.108 1.172
-13.640 -12.945 0.119
-13.588 -12.247 -0.399
-14.505 -11.639 -1.868
-13.535 -12.331 -0.212
-12.557 -12.022 0.406
-12.114 -10.717 -0.394
-12.614 -11.388 -0.215
-12.850 -11.267 -0.648
-13.335 -13.011 0.350
-12.739 -12.149 0.454
-13.473 -12.281 -0.192
-13.536 -12.331 -0.213
-12.844 -11.849 -0.012
-13.261 -11.849 -0.471
-13.640 -12.951 0.127
-13.640 -12.947 0.124
-11.775 -10.702 -0.066
-11.317 -10.795 0.229
-13.298 -12.114 -0.271
-13.750 -11.333 -1.453
-12.759 -11.517 -0.232
-13.357 -12.322 -0.020
-13.813 -12.382 -0.453
-12.121 -10.986 -0.120
-10.756 -9.509 -0.235
-11.993 -10.423 -0.550
-13.743 -11.583 -1.329
-12.289 -11.033 -0.393
-11.774 -10.448 -0.315
-13.558 -11.883 -0.690
-13.310 -12.100 -0.226
-13.558 -11.882 -0.690
-13.885 -11.357 -1.876
-11.653 -10.502 -0.163
-12.569 -10.969 -0.603
-11.438 -9.930 -0.481
-14.405 -11.635 -1.773
-13.230 -10.697 -1.519
-11.669 -10.453 -0.246
-12.581 -11.174 -0.477
-12.379 -10.870 -0.510
-11.713 -9.666 -1.168
-12.377 -11.834 0.455
-13.591 -12.266 -0.387
-13.139 -11.917 -0.215
-13.804 -12.308 -0.512
-12.857 -11.276 -0.665
-13.517 -12.476 -0.086
-14.865 -11.597 -2.282
-13.498 -11.895 -0.620
-12.529 -11.155 -0.358
-11.560 -10.558 0.022
-11.437 -9.912 -0.500
-9.206 -8.579 0.292
-13.630 -12.941 0.124
-12.362 -11.031 -0.478
-13.577 -11.388 -1.261
-11.953 -10.829 -0.160
-13.644 -11.403 -1.422
-12.625 -11.554 -0.154
-12.569 -12.154 0.380
-11.448 -10.164 -0.290
-11.726 -10.466 -0.248
-13.450 -12.203 -0.246
-12.916 -11.876 -0.147
-12.884 -12.466 0.546
-11.958 -10.386 -0.538
-10.755 -9.510 -0.235
-12.083 -12.097 1.016
-13.656 -12.344 -0.301
-11.819 -10.978 0.099
-13.538 -12.245 -0.303
-13.906 -12.585 -0.354
-13.591 -12.260 -0.393
-12.518 -11.679 0.043
-14.696 -13.449 -0.240
-13.547 -12.432 -0.107
-15.617 -13.876 -0.757
-14.015 -12.644 -0.379
-13.428 -12.041 -0.371
-12.562 -11.375 -0.189
-13.564 -12.195 -0.347
-12.570 -11.432 -0.151
-14.015 -12.643 -0.381
-12.931 -11.853 -0.103
-12.542 -11.458 -0.080
-12.761 -11.415 -0.384
-14.509 -13.368 -0.196
-13.514 -12.342 -0.165
-12.689 -11.170 -0.488
-13.414 -12.039 -0.357
-12.984 -11.783 -0.196
-14.017 -12.643 -0.381
-14.747 -13.029 -0.896
-14.542 -13.342 -0.202
-12.964 -11.858 -0.127
-12.832 -11.263 -0.552
-11.108 -10.355 0.204
-13.328 -12.104 -0.299
-14.785 -13.245 -0.581
-14.120 -12.643 -0.486
-11.024 -9.768 -0.236
-12.629 -11.390 -0.250
-12.954 -11.844 -0.124
-13.020 -11.787 -0.265
-14.558 -13.393 -0.159
-15.639 -13.873 -0.781
-13.038 -12.007 -0.025
-12.663 -11.409 -0.253
-13.279 -12.111 -0.244
-14.815 -12.658 -1.183
-13.564 -12.196 -0.347
-12.480 -11.543 0.061
-13.207 -12.156 -0.026
-15.349 -14.366 -0.089
-11.423 -10.367 -0.060
-13.498 -12.095 -0.385
-10.763 -9.617 -0.124
-13.220 -12.090 -0.122
-12.909 -11.893 -0.005
-13.404 -12.052 -0.335
-14.118 -12.644 -0.485
-13.547 -12.451 -0.106
-11.919 -10.755 -0.166
-13.574 -12.380 -0.200
-15.657 -14.353 -0.327
-13.125 -11.979 -0.140
-15.652 -14.672 -0.021
-12.719 -11.472 -0.265
-13.736 -11.610 -1.201
-13.051 -11.930 -0.149
-12.684 -11.423 -0.292
-13.812 -12.524 -0.333
-13.296 -12.093 -0.281
-13.047 -11.641 -0.371
-12.523 -11.310 -0.227
-12.673 -11.382 -0.304
-14.572 -13.342 -0.229
-12.400 -11.410 0.017
-14.605 -13.424 -0.177
-12.929 -11.915 -0.032
-10.972 -9.532 -0.453
-11.894 -10.892 -0.322
-14.955 -13.679 -0.269
-14.049 -12.807 -0.225
-13.097 -11.993 -0.105
-14.764 -13.144 -0.753
-9.929 -8.782 -0.169
-11.798 -9.526 -1.274
-15.617 -13.873 -0.759
-11.611 -9.641 -1.088
-10.983 -9.529 -0.464
-12.531 -11.181 -0.423
-15.171 -13.930 -0.316
-11.611 -9.641 -1.087
-13.808 -13.082 0.280
-13.500 -12.247 -0.242
-14.014 -12.643 -0.378
-12.640 -11.081 -0.670
-11.795 -9.534 -1.263
-12.467 -11.240 -0.259
-13.414 -12.035 -0.361
-11.793 -9.524 -1.269
-11.837 -9.573 -1.294
-11.596 -10.497 -0.104
-13.044 -12.276 0.242
-13.295 -12.105 -0.194
-14.630 -13.061 -0.645
-14.016 -12.644 -0.380
-14.030 -12.305 -0.731
-11.250 -9.766 -0.516
-15.618 -13.873 -0.760
-13.248 -11.652 -0.584
-13.050 -11.954 -0.096
-13.267 -11.987 -0.282
-14.312 -10.797 -2.623
-11.619 -10.550 -0.064
-15.501 -12.673 -1.820
-13.430 -12.048 -0.365
-14.136 -12.647 -0.498
-13.415 -12.041 -0.357
-10.447 -9.195 -0.258
-12.458 -11.242 -0.233
-13.415 -12.040 -0.358
-13.519 -12.980 0.479
-11.596 -10.496 -0.102
-12.376 -11.087 -0.415
-14.556 -8.947 -4.893
-9.646 -8.190 -0.454
-9.720 -8.528 -0.174
-15.457 -13.448 -1.052
-13.635 -12.639 -0.019
-11.611 -9.641 -1.088
-13.488 -11.965 -0.539
-12.056 -11.333 0.281
-13.244 -11.844 -0.382
-13.489 -11.964 -0.540
-14.147 -12.650 -0.499
-11.770 -10.694 -0.082
-11.468 -9.590 -0.943
-14.209 -12.978 -0.304
-12.601 -11.282 -0.329
-16.097 -13.790 -1.336
-12.201 -11.233 0.043
-14.385 -12.922 -0.467
-14.601 -13.436 -0.159
-12.979 -11.900 -0.063
-14.748 -13.076 -0.751
-14.478 -13.262 -0.243
-15.170 -13.969 -0.274
-12.482 -11.324 -0.188
-12.692 -11.398 -0.323
-12.557 -11.493 -0.086
-12.206 -11.640 0.381
-12.478 -11.411 -0.078
-14.543 -13.495 -0.060
-14.593 -13.438 -0.155
-12.814 -11.270 -0.533
-14.424 -13.265 -0.182
-11.611 -9.641 -1.087
-9.804 -8.191 -0.612
-12.634 -11.367 -0.285
-13.495 -12.035 -0.443
-11.505 -10.532 0.026
-10.567 -9.694 0.151
-10.912 -9.736 -0.174
-12.643 -11.393 -0.268
-13.488 -11.965 -0.539
-12.415 -11.539 0.018
-13.356 -11.846 -0.492
-14.017 -12.644 -0.382
-13.286 -11.993 -0.281
-13.584 -12.326 -0.265
-11.577 -10.669 0.009
-10.881 -9.651 -0.226
-12.640 -11.085 -0.666
-15.431 -13.561 -0.914
-11.804 -10.759 -0.049
-13.426 -12.259 -0.178
-11.794 -10.801 -0.011
-12.919 -12.017 0.093
-13.346 -11.848 -0.479
-12.334 -11.239 -0.090
-14.730 -13.628 -0.094
-13.880 -12.603 -0.313
-15.883 -15.141 0.269
-14.387 -12.836 -0.538
-13.488 -11.976 -0.527
-13.431 -12.048 -0.366
-12.585 -11.274 -0.306
-13.274 -11.991 -0.278
-13.964 -10.572 -2.402
-15.351 -14.378 -0.080
-12.443 -11.359 -0.092
-15.544 -12.734 -1.801
-12.650 -11.648 -0.024
-10.878 -9.650 -0.226
-11.620 -10.537 -0.077
-12.045 -11.119 0.075
-12.387 -10.123 -1.281
-10.907 -9.756 -0.163
-12.577 -11.290 -0.302
-9.329 -8.364 0.034
-10.921 -9.759 -0.160
-15.104 -13.062 -1.057
-13.869 -13.052 0.187
-14.754 -13.024 -0.904
-13.236 -12.017 -0.214
-14.229 -12.643 -0.583
-15.686 -14.599 -0.097
-12.530 -11.317 -0.221
-15.387 -12.557 -1.841
-11.058 -9.703 -0.356
-13.437 -12.254 -0.172
-12.622 -11.087 -0.647
-13.430 -12.049 -0.364
-13.049 -11.647 -0.367
-14.619 -13.437 -0.176
-12.095 -10.687 -0.397
-14.319 -13.327 0.010
-14.016 -12.643 -0.381
-13.488 -12.104 -0.401
-12.445 -11.271 -0.175
-14.060 -13.190 0.131
-11.323 -10.759 0.346
-13.283 -12.093 -0.258
-12.507 -11.259 -0.260
-10.921 -9.766 -0.155
-11.771 -10.692 -0.085
-12.568 -11.278 -0.305
-10.911 -9.728 -0.180
-11.901 -10.669 -0.257
-12.922 -11.871 -0.039
-13.871 -12.505 -0.367
-13.128 -11.805 -0.354
-10.407 -9.115 -0.320
-13.667 -11.613 -1.126
-12.975 -11.531 -0.422
-12.000 -11.910 0.890
-12.032 -11.300 0.232
-14.771 -13.499 -0.279
-11.551 -10.403 -0.185
-13.443 -12.309 -0.146
-14.909 -13.572 -0.324
-13.048 -11.649 -0.363
-13.710 -12.601 -0.121
-12.789 -11.551 -0.219
-11.747 -10.625 -0.141
-12.863 -11.819 -0.127
-15.620 -13.874 -0.762
-13.543 -12.124 -0.395
-12.668 -11.370 -0.312
-14.228 -12.644 -0.581
-12.898 -11.823 -0.059
-15.344 -13.002 -1.389
-11.794 -9.528 -1.270
-11.762 -10.965 -0.049
-13.653 -12.974 0.315
-10.232 -9.789 0.495
-12.538 -11.340 -0.205
-11.421 -10.685 0.176
-11.242 -9.841 -0.457
-14.985 -14.046 0.049
-14.060 -12.781 -0.319
-14.814 -12.536 -1.543
-11.446 -10.913 0.317
-11.771 -10.693 -0.085
-15.443 -13.442 -1.045
-14.519 -14.399 0.897
-14.320 -13.328 0.009
-13.858 -12.599 -0.256
-10.884 -9.660 -0.221
-11.839 -9.568 -1.297
-13.513 -12.373 -0.163
-13.392 -12.039 -0.336
-8.783 -8.116 0.336
-15.443 -13.442 -1.045
-12.482 -11.293 -0.202
-12.937 -11.697 -0.312
-12.935 -11.907 -0.024
-15.457 -13.449 -1.052
-12.624 -11.082 -0.652
-13.652 -12.595 -0.080
-13.817 -12.641 -0.173
-13.065 -11.809 -0.236
-13.345 -11.850 -0.476
-13.011 -11.788 -0.273
-15.346 -14.403 -0.048
-11.621 -9.607 -1.028
-10.912 -9.747 -0.163
-13.018 -11.778 -0.272
-14.043 -12.667 -0.380
-14.031 -12.641 -0.392
-13.137 -12.439 0.122
-11.087 -9.660 -0.425
-13.858 -12.603 -0.253
-9.286 -8.428 0.148
-9.363 -8.320 -0.029
-10.414 -9.593 0.200
-8.985 -7.813 -0.160
-13.262 -11.851 -0.392
-8.985 -7.819 -0.155
-12.367 -11.100 -0.399
-13.764 -13.010 0.214
-12.838 -11.707 -0.169
-11.640 -9.640 -1.116
-12.800 -11.709 -0.216
-11.841 -9.572 -1.294
-13.829 -12.289 -0.530
-12.415 -11.149 -0.246
-14.676 -13.161 -0.481
-13.067 -12.512 0.445
-13.218 -11.791 -0.419
-13.521 -12.637 0.094
-14.047 -13.370 0.343
-14.382 -13.498 0.113
-15.015 -12.872 -1.143
-13.831 -12.287 -0.533
-16.619 -14.268 -1.392
-13.829 -12.295 -0.524
-13.586 -13.816 1.126
-13.829 -12.298 -0.521
-16.647 -14.269 -1.418
-12.469 -11.155 -0.295
-13.243 -11.804 -0.430
-13.170 -12.497 0.325
-11.612 -10.373 -0.236
-14.660 -13.163 -0.460
-10.706 -9.665 -0.068
-14.992 -12.863 -1.167
-12.279 -11.849 0.563
-12.401 -10.708 -0.684
-15.012 -12.877 -1.134
-12.523 -10.723 -0.796
-11.035 -10.790 0.765
-11.862 -12.061 1.209
-16.600 -14.267 -1.373
-11.966 -10.497 -0.459
-12.168 -11.487 0.191
-14.547 -12.859 -0.703
-13.167 -12.469 0.300
-16.836 -15.254 -0.601
-13.580 -13.812 1.130
-14.326 -13.472 0.144
-13.186 -13.003 0.813
-11.789 -10.494 -0.287
-14.907 -12.836 -1.111
-10.835 -11.669 1.830
-12.126 -10.961 -0.188
-12.298 -11.173 -0.142
-16.886 -15.031 -0.944
-12.110 -11.648 0.533
-12.511 -11.688 0.026
-13.585 -12.493 -0.126
-13.653 -11.534 -1.131
-12.125 -10.967 -0.181
-11.951 -12.235 1.287
-13.650 -12.642 -0.000
-16.836 -15.259 -0.597
-12.123 -10.861 -0.275
-11.609 -10.390 -0.215
-11.710 -12.192 1.490
-12.968 -11.701 -0.357
-12.280 -11.846 0.559
-13.373 -12.523 0.148
-11.496 -11.408 0.908
-10.896 -9.795 -0.123
-13.109 -11.343 -0.769
-14.453 -13.192 -0.221
-16.579 -14.266 -1.353
-12.517 -11.162 -0.337
-11.493 -11.406 0.909
-14.453 -13.191 -0.222
-16.634 -14.178 -1.503
-12.516 -11.600 0.028
-13.108 -11.807 -0.290
-13.236 -11.795 -0.433
-14.669 -12.943 -0.722
-14.668 -13.169 -0.464
-14.383 -13.497 0.111
-11.728 -10.468 -0.289
-14.094 -13.446 0.351
-10.540 -12.114 2.494
-12.076 -12.790 1.691
-10.882 -9.804 -0.089
-15.489 -13.894 -0.603
-15.125 -12.890 -1.232
-15.941 -14.907 -0.223
-10.705 -10.209 0.495
-12.804 -10.927 -0.861
-12.907 -11.532 -0.342
-12.844 -11.996 0.137
-10.740 -9.999 0.217
-10.537 -9.671 0.135
-12.143 -10.960 -0.205
-15.013 -12.878 -1.135
-15.012 -12.880 -1.132
-13.970 -12.833 -0.126
-12.279 -11.844 0.558
-15.782 -13.901 -0.896
-15.013 -12.877 -1.135
-12.260 -11.917 0.653
-13.859 -12.452 -0.438
-12.308 -10.844 -0.465
-11.592 -10.765 0.174
-12.279 -11.836 0.551
-15.014 -12.877 -1.136
-11.568 -10.975 0.412
-13.580 -12.250 -0.314
-12.728 -11.964 0.218
-11.950 -12.222 1.275
-11.733 -10.500 -0.222
-16.647 -14.269 -1.418
-16.647 -14.269 -1.418
-16.579 -14.266 -1.353
-15.479 -14.151 -0.375
-14.453 -13.192 -0.220
-14.907 -12.835 -1.113
-13.573 -12.641 0.045
-11.158 -11.463 1.200
-12.555 -10.726 -0.825
-13.236 -11.794 -0.433
-11.592 -10.781 0.190
-12.012 -10.840 -0.196
-12.866 -11.938 0.056
-14.068 -13.391 0.340
-12.728 -11.965 0.220
-14.453 -13.192 -0.221
-12.277 -11.819 0.533
-13.186 -12.516 0.327
-15.300 -13.724 -0.603
-12.077 -12.120 1.050
-12.684 -10.885 -0.799
-11.473 -10.871 0.390
-15.554 -13.896 -0.666
-15.767 -13.884 -0.902
-14.659 -13.171 -0.453
-16.761 -15.245 -0.533
-14.727 -12.907 -0.855
-12.469 -11.156 -0.294
-12.469 -10.813 -0.707
-11.216 -9.988 -0.245
-13.572 -12.642 0.047
-14.743 -12.913 -0.819
-12.601 -11.413 -0.177
-13.970 -12.835 -0.125
-12.077 -12.117 1.047
-15.086 -13.199 -1.091
-15.011 -12.877 -1.134
-16.762 -15.249 -0.530
-12.887 -10.720 -1.162
-12.007 -10.983 -0.053
-16.648 -14.270 -1.419
-11.592 -10.774 0.183
-12.126 -10.961 -0.188
-14.413 -13.192 -0.181
-12.017 -11.357 0.317
-12.155 -11.711 0.536
-16.601 -14.267 -1.374
-11.808 -10.405 -0.372
-12.069 -12.790 1.698
-14.068 -13.389 0.338
-14.894 -12.463 -1.444
-12.425 -11.133 -0.281
-11.205 -10.665 0.468
-10.369 -10.621 1.176
-12.908 -11.578 -0.311
-12.260 -11.922 0.657
-11.295 -12.183 1.864
-13.203 -11.779 -0.395
-11.496 -10.400 -0.083
-14.161 -13.463 0.094
-12.184 -10.847 -0.345
-14.906 -12.829 -1.110
-16.648 -14.269 -1.418
-11.744 -10.551 -0.183
-16.648 -14.269 -1.418
-12.776 -10.336 -1.588
-14.534 -12.883 -0.700
-12.112 -10.949 -0.182
-12.313 -10.845 -0.466
-15.586 -14.188 -0.388
-12.261 -11.918 0.653
-11.899 -10.083 -0.794
-14.413 -13.193 -0.181
-12.068 -11.613 0.535
-11.578 -10.785 0.208
-12.485 -11.149 -0.329
-12.283 -10.819 -0.468
-16.385 -14.271 -1.197
-12.855 -11.664 -0.190
-14.638 -12.894 -0.760
-15.841 -13.903 -0.952
-14.907 -12.836 -1.112
-12.741 -11.077 -0.686
-15.145 -13.881 -0.268
-11.369 -10.400 0.038
-10.169 -10.786 1.627
-12.694 -11.767 0.069
-14.682 -12.935 -0.759
-12.145 -10.957 -0.211
-11.210 -9.978 -0.244
-11.826 -10.778 -0.127
-12.108 -12.098 1.006
-12.986 -12.183 0.187
-16.815 -15.243 -0.589
-14.648 -13.147 -0.464
-12.291 -11.163 -0.146
-15.640 -13.667 -1.019
-11.959 -11.062 0.060
-12.504 -11.147 -0.346
-12.016 -11.363 0.322
-10.646 -9.725 0.077
-15.561 -13.896 -0.673
-12.784 -11.902 0.101
-14.638 -12.887 -0.769
-10.687 -9.729 0.038
-13.246 -11.809 -0.455
-13.472 -11.886 -0.588
-13.179 -13.456 1.068
-13.746 -12.348 -0.381
-15.694 -14.195 -0.497
-12.322 -11.034 -0.266
-11.492 -10.420 -0.062
-11.973 -10.853 -0.123
-12.831 -11.916 0.078
-11.234 -10.782 0.526
-15.941 -14.912 -0.220
-11.595 -10.785 0.191
-11.368 -11.394 1.024
-12.783 -11.906 0.103
-11.672 -10.917 0.254
-11.840 -10.601 -0.239
-12.313 -10.850 -0.462
-12.556 -10.725 -0.826
-13.522 -12.257 -0.249
-15.858 -13.903 -0.969
-13.371 -12.510 0.136
-14.743 -12.914 -0.820
-12.729 -11.964 0.215
-14.893 -12.478 -1.425
-12.562 -10.834 -0.721
-14.636 -12.916 -0.734
-13.575 -12.253 -0.306
-13.338 -10.808 -1.552
-16.647 -14.272 -1.416
-12.109 -12.098 1.006
-12.280 -11.845 0.558
-13.996 -12.832 -0.154
-11.953 -10.437 -0.510
-12.287 -11.164 -0.142
-12.359 -11.422 0.076
-12.101 -12.099 1.014
-13.531 -12.641 0.088
-16.949 -15.051 -0.978
-13.521 -12.255 -0.251
-13.279 -11.889 -0.389
-12.119 -10.934 -0.208
-11.779 -12.236 1.469
-11.208 -11.772 1.565
-12.732 -11.305 -0.410
-11.400 -10.310 -0.140
-12.983 -11.426 -0.526
-14.062 -12.999 -0.119
-12.913 -12.402 0.475
-12.022 -11.493 0.448
-10.619 -9.784 0.161
-12.662 -10.326 -1.480
-12.600 -11.413 -0.176
-11.608 -9.851 -0.804
-12.078 -12.136 1.067
-11.643 -10.482 -0.184
-10.110 -9.686 0.489
-11.988 -10.926 -0.063
-14.742 -12.973 -0.761
-12.533 -11.106 -0.446
-12.682 -11.969 0.264
-16.646 -14.287 -1.400