-15.821 -14.272 -0.582
-15.919 -14.274 -0.676
-17.172 -15.707 -0.466
-13.845 -12.123 -0.783
-13.262 -12.126 -0.194
-15.918 -14.272 -0.676
-14.399 -12.988 -0.413
-17.314 -15.979 -0.386
-12.574 -11.547 -0.023
-15.093 -12.759 -1.335
-17.196 -15.714 -0.485
-13.848 -12.119 -0.790
-17.178 -15.756 -0.417
-17.142 -14.881 -1.259
-17.168 -15.712 -0.458
-18.052 -15.371 -1.687
-14.754 -13.407 -0.350
-17.169 -15.711 -0.458
-18.387 -15.363 -2.041
-18.034 -15.378 -1.654
-16.580 -15.415 -0.148
-14.172 -13.430 -0.074
-19.611 -18.959 0.226
-16.222 -14.768 -0.456
-15.095 -13.858 -0.278
-15.947 -14.591 -0.359
-17.118 -14.876 -1.248
-16.566 -14.845 -0.739
-17.119 -14.877 -1.247
-15.934 -14.991 0.038
-16.016 -14.634 -0.379
-16.167 -15.603 0.442
-13.461 -13.243 0.723
-16.702 -15.005 -0.702
-13.422 -12.756 0.336
-12.872 -11.612 -0.351
-14.588 -12.731 -0.859
-15.211 -14.004 -0.261
-14.222 -11.670 -1.576
-14.295 -14.064 0.737
-12.843 -10.817 -1.042
-11.859 -10.842 -0.035
-12.768 -11.658 -0.139
-15.119 -12.928 -1.240
-16.984 -16.118 0.067
-17.731 -16.906 0.153
-15.210 -14.061 -0.146
-16.375 -14.875 -0.537
-13.911 -13.033 0.099
-18.312 -15.411 -1.972
-16.699 -14.611 -1.090
-17.678 -16.966 0.236
-17.440 -16.700 0.248
-16.402 -14.907 -0.511
-16.496 -15.750 0.250
-13.582 -13.229 0.649
-13.807 -11.686 -1.142
-17.721 -16.926 0.175
-13.325 -12.766 0.437
-15.953 -14.602 -0.359
-15.933 -14.895 -0.047
-16.480 -14.882 -0.597
-14.796 -13.486 -0.358
-17.309 -16.950 0.648
-13.605 -13.212 0.610
-12.845 -11.611 -0.321
-15.584 -14.515 -0.134
-16.914 -15.500 -0.413
-13.603 -13.217 0.617
-13.807 -11.675 -1.150
-16.991 -16.006 -0.010
-12.767 -10.799 -0.967
-13.502 -11.959 -0.643
-12.592 -11.520 -0.071
-17.289 -17.028 0.641
-17.610 -16.056 -0.576
-16.020 -15.213 0.139
-16.251 -15.411 0.177
-16.637 -14.718 -0.984
-16.081 -15.531 0.451
-15.046 -14.034 -0.012
-13.301 -11.954 -0.440
-16.212 -14.623 -0.618
-16.402 -15.591 0.196
-14.801 -14.301 0.509
-15.297 -14.312 -0.078
-15.993 -14.905 -0.127
-13.027 -11.826 -0.231
-16.765 -15.901 0.134
-15.566 -13.775 -0.805
-16.169 -15.601 0.439
-14.904 -13.894 -0.153
-16.349 -15.163 -0.187
-16.305 -15.403 0.106
-17.834 -17.036 0.189
-13.807 -11.693 -1.134
-18.312 -15.411 -1.972
-18.312 -15.411 -1.972
-17.862 -16.568 -0.270
-14.796 -13.421 -0.384
-13.077 -13.186 0.982
-13.320 -12.586 0.264
-14.576 -14.020 0.398
-18.487 -17.020 -0.497
-12.239 -12.501 1.247
-16.299 -14.915 -0.384
-13.323 -12.685 0.259
-16.637 -14.722 -0.981
-13.807 -11.694 -1.133
-15.978 -15.180 0.205
-15.604 -14.816 0.147
-16.153 -15.547 0.394
-11.947 -11.756 0.803
-16.418 -15.609 0.190
-17.835 -17.039 0.192
-17.563 -16.987 0.336
-19.248 -18.403 0.147
-16.368 -15.158 -0.208
-13.600 -13.196 0.603
-15.656 -14.643 -0.031
-17.529 -16.219 -0.294
-14.292 -14.067 0.744
-16.732 -15.044 -0.693
-16.156 -15.354 0.192
-18.369 -17.481 0.101
-11.549 -10.827 0.251
-12.845 -12.071 0.220
-14.448 -14.007 0.509
-15.934 -14.896 -0.048
-14.286 -13.309 -0.021
-17.601 -15.111 -1.493
-16.004 -15.294 0.264
-15.967 -14.874 -0.154
-15.751 -15.187 0.438
-15.931 -14.651 -0.274
-16.782 -15.886 0.101
-16.401 -15.593 0.198
-15.263 -14.091 -0.168
-12.778 -10.934 -0.862
-17.277 -15.139 -1.140
-17.942 -17.079 0.108
-14.803 -14.299 0.505
-11.740 -10.597 -0.159
-11.783 -12.016 1.192
-18.295 -17.508 0.202
-16.460 -15.695 0.225
-13.466 -12.756 0.291
-16.049 -15.565 0.528
-17.943 -17.075 0.103
-12.717 -11.938 0.077
-17.492 -16.586 0.093
-15.451 -14.412 -0.052
-16.160 -15.607 0.444
-10.782 -11.159 1.389
-13.321 -13.242 0.861
-16.470 -14.869 -0.609
-13.484 -12.134 -0.380
-14.555 -13.147 -0.411
-15.937 -14.632 -0.301
-18.451 -17.203 -0.265
-16.044 -15.261 0.222
-16.064 -14.597 -0.450
-16.154 -15.549 0.398
-15.766 -13.929 -0.903
-10.956 -10.439 0.384
-15.729 -14.981 0.234
-15.792 -14.633 -0.149
-15.845 -14.691 -0.155
-13.806 -12.942 0.110
-15.562 -14.479 -0.078
-16.641 -15.731 0.091
-16.521 -14.872 -0.640
-16.883 -15.909 -0.031
-13.650 -13.219 0.572
-15.564 -14.445 -0.115
-13.318 -13.244 0.865
-14.497 -13.417 -0.154
-19.021 -18.221 0.158
-11.820 -10.710 -0.130
-14.358 -14.132 0.713
-18.454 -17.200 -0.272
-14.703 -13.919 0.183
-13.306 -12.093 -0.302
-17.570 -16.749 0.162
-14.554 -13.949 0.343
-12.851 -12.804 0.943
-11.991 -11.304 0.297
-16.569 -15.452 -0.124
-15.784 -14.887 0.043
-16.753 -15.940 0.055
-13.398 -12.753 0.339
-14.468 -13.237 -0.231
-13.783 -12.725 -0.093
-15.800 -14.681 -0.118
-13.468 -12.755 0.288
-16.682 -15.731 0.050
-13.870 -12.706 -0.178
-13.108 -13.021 0.859
-14.037 -13.994 0.684
-12.425 -11.413 0.003
-13.165 -13.036 0.803
-17.326 -16.178 -0.134
-14.149 -12.739 -0.422
-13.302 -12.113 -0.218
-16.108 -15.351 0.250
-16.133 -14.923 -0.208
-16.781 -15.889 0.105
-15.966 -15.286 0.311
-18.210 -17.406 0.176
-15.736 -14.900 0.128
-16.173 -15.357 0.180
-14.653 -14.220 0.560
-12.894 -12.528 0.499
-16.600 -15.369 -0.248
-12.962 -12.240 0.278
-10.934 -10.888 0.921
-12.327 -12.643 1.261
-17.891 -16.995 0.088
-18.032 -16.128 -0.909
-17.641 -16.455 -0.171
-15.312 -13.283 -1.051
-16.360 -15.451 0.071
-11.703 -10.721 0.033
-17.184 -15.759 -0.422
-16.387 -14.908 -0.503
-17.143 -15.981 -0.162
-12.242 -11.050 -0.187
-17.498 -16.327 -0.160
-17.189 -15.741 -0.452
-15.815 -14.997 0.183
-16.618 -15.455 -0.171
-14.113 -13.317 0.190
-18.204 -17.591 0.332
-16.102 -14.956 -0.217
-15.244 -13.845 -0.436
-14.762 -13.484 -0.284
-15.396 -14.453 0.059
-13.459 -12.150 -0.341
-17.476 -15.395 -1.191
-15.963 -14.991 0.029
-14.159 -12.862 -0.306
-16.276 -14.794 -0.477
-15.472 -14.505 0.025
-16.056 -15.009 -0.086
-17.139 -15.602 -0.543
-11.841 -10.678 -0.172
-14.690 -13.465 -0.279
-15.868 -14.869 0.007
-15.002 -14.853 0.770
-17.168 -13.751 -2.421
-18.059 -17.543 0.469
-14.045 -13.178 0.061
-13.462 -12.146 -0.346
-10.907 -11.333 1.437
-13.257 -12.058 -0.240
-18.160 -17.321 0.156
-15.779 -14.959 0.185
-15.580 -15.544 0.868
-13.091 -11.623 -0.500
-17.250 -17.080 0.790
-13.019 -11.739 -0.286
-14.811 -14.743 0.732
-13.279 -13.530 1.196
-15.842 -15.435 0.597
-18.193 -17.467 0.269
-16.686 -16.018 0.335
-14.225 -14.344 1.090
-16.496 -15.044 -0.451
-12.636 -12.009 0.220
-13.848 -12.644 -0.223
-13.282 -13.521 1.180
-13.585 -12.247 -0.359
-14.817 -13.977 -0.025
-19.290 -18.418 0.123
-15.534 -14.535 0.004
-13.664 -11.893 -0.815
-15.502 -14.957 0.364
-14.051 -12.899 -0.170
-17.151 -15.534 -0.611
-13.812 -12.942 0.122
-15.601 -15.073 0.431
-14.224 -13.224 -0.008
-17.298 -17.017 0.697
-17.160 -16.795 0.651
-18.035 -17.505 0.427
-9.539 -9.279 0.693
-14.032 -13.157 0.024
-16.028 -15.322 0.255
-14.914 -14.449 0.526
-18.454 -17.201 -0.270
-13.314 -12.688 0.164
-13.842 -13.364 0.258
-15.828 -14.998 0.083
-17.759 -16.987 0.169
-9.287 -8.584 0.283
-12.333 -11.624 0.290
-15.423 -14.725 0.313
-16.951 -15.529 -0.430
-13.689 -12.971 0.112
-13.079 -13.185 0.980
-14.153 -13.914 0.728
-16.037 -14.851 -0.203
-15.762 -15.209 0.449
-17.429 -17.030 0.600
-13.877 -12.970 0.015
-13.329 -12.768 0.435
-13.322 -13.235 0.853
-16.258 -15.502 0.120
-18.078 -17.221 0.126
-18.346 -17.663 0.278
-17.360 -15.641 -0.902
-18.316 -17.633 0.291
-13.921 -13.029 0.076
-17.509 -16.263 -0.228
-18.175 -17.527 0.339
-15.347 -14.576 0.227
-10.778 -11.123 1.360
-15.835 -14.906 0.033
-16.642 -15.723 0.082
-11.519 -10.500 -0.014
-16.777 -15.895 0.115
-15.177 -14.604 0.438
-15.471 -14.821 0.297
-17.107 -16.310 0.216
-16.778 -15.888 0.107
-13.321 -13.242 0.863
-13.344 -11.839 -0.610
-13.159 -12.380 0.220
-15.810 -15.223 0.417
-15.905 -14.789 -0.114
-17.533 -16.899 0.349
-17.530 -16.480 -0.067
-15.753 -14.800 0.051
-15.905 -14.794 -0.108
-15.398 -14.437 0.041
-10.060 -8.947 -0.113
-15.560 -14.689 0.084
-12.537 -10.275 -1.288
-16.152 -15.552 0.402
-17.002 -17.266 1.194
-12.954 -11.523 -0.470
-15.547 -14.911 0.372
-13.366 -12.099 -0.271
-14.986 -14.335 0.147
-16.610 -16.368 0.749
-13.162 -13.030 0.798
-11.705 -10.191 -0.521
-15.564 -13.770 -0.808
-16.600 -15.369 -0.247
-11.453 -11.048 0.588
-14.749 -13.763 -0.015
-13.507 -12.126 -0.404
-16.147 -14.891 -0.258
-16.731 -14.724 -1.074
-16.962 -16.719 0.748
-14.462 -13.531 -0.047
-16.372 -15.568 0.215
-14.679 -14.030 0.350
-13.027 -11.978 -0.074
-16.236 -14.950 -0.329
-13.149 -12.497 0.349
-14.878 -14.384 0.488
-9.873 -9.403 0.517
-17.921 -16.990 0.050
-16.965 -16.232 0.070
-15.103 -14.742 0.653
-16.660 -15.728 0.062
-17.660 -17.001 0.253
-11.762 -11.092 0.270
-13.420 -12.726 0.315
-12.618 -11.512 -0.188
-17.534 -16.936 0.225
-10.432 -9.654 0.242
-13.893 -12.852 -0.046
-14.106 -14.126 1.029
-15.950 -14.571 -0.389
-15.399 -14.435 0.040
-8.819 -9.230 1.386
-16.110 -15.351 0.248
-15.575 -14.887 0.258
-11.995 -10.909 -0.147
-13.768 -12.912 0.084
-19.118 -18.486 0.368
-12.119 -12.017 0.900
-15.895 -14.860 -0.111
-8.784 -9.088 1.303
-14.815 -14.385 0.558
-13.033 -12.291 0.233
-12.890 -12.815 0.881
-16.132 -14.917 -0.214
-12.528 -11.347 -0.193
-10.170 -10.115 0.934
-12.336 -11.252 -0.100
-16.161 -15.602 0.448
-15.147 -13.669 -0.465
-15.395 -14.670 0.193
-13.028 -12.684 0.574
-15.644 -14.985 0.324
-17.445 -17.060 0.615
-15.337 -14.871 0.399
-17.190 -16.069 -0.140
-12.494 -11.229 -0.282
-12.622 -10.239 -1.398
-16.082 -15.251 0.167
-16.646 -15.449 -0.201
-14.621 -13.995 0.150
-13.193 -12.375 0.101
-14.573 -13.639 0.091
-17.354 -16.893 0.524
-15.314 -14.713 0.405
-17.694 -17.020 0.278
-18.118 -17.399 0.268
-15.542 -15.077 0.272
-14.201 -14.299 1.046
-17.187 -16.059 -0.144
-15.183 -14.058 -0.122
-14.330 -14.503 1.189
-14.250 -12.974 -0.284
-19.046 -18.469 0.420
-18.434 -17.784 0.339
-15.398 -14.440 0.038
-16.722 -16.414 0.664
-13.493 -12.420 -0.060
-14.387 -11.676 -1.941
-12.302 -11.388 0.076
-13.022 -11.625 -0.475
-13.650 -11.989 -0.679
-13.494 -12.421 -0.060
-14.552 -11.851 -1.827
-13.948 -11.887 -1.190
-12.706 -11.470 -0.226
-13.717 -11.777 -1.046
-13.483 -12.425 -0.043
-14.333 -12.403 -0.955
-12.647 -12.146 0.458
-13.022 -11.631 -0.473
-13.309 -12.418 0.122
-13.433 -13.099 0.269
-13.483 -12.418 -0.050
-13.911 -12.605 -0.307
-13.064 -10.893 -1.228
-13.908 -12.610 -0.286
-13.753 -13.035 0.088
-13.668 -11.501 -1.243
-12.782 -11.167 -0.608
-12.625 -11.261 -0.351
-13.913 -12.484 -0.452
-13.658 -11.563 -1.369
-13.658 -11.556 -1.375
-12.981 -12.567 0.545
-12.928 -11.956 0.007
-12.981 -12.564 0.544
-12.897 -10.907 -1.020
-12.615 -11.885 0.267
-12.187 -11.224 -0.030
-13.446 -12.289 -0.194
-13.718 -11.800 -1.026
-11.675 -10.522 -0.137
-11.180 -10.575 0.297
-12.981 -12.570 0.550
-12.848 -11.583 -0.258
-11.655 -10.509 -0.134
-12.862 -11.652 -0.209
-12.595 -11.810 0.215
-12.426 -11.794 0.311
-11.156 -9.881 -0.264
-12.681 -11.255 -0.412
-12.694 -12.086 0.380
-13.063 -10.890 -1.232
-12.981 -12.564 0.545
-14.696 -11.735 -1.970
-14.476 -12.215 -1.275
-13.116 -12.585 0.427
-12.283 -10.267 -1.009
-13.482 -12.409 -0.062
-12.872 -11.855 -0.032
-12.032 -10.268 -0.758
-10.710 -9.803 0.098
-11.963 -10.588 -0.367
-13.310 -11.906 -0.408
-12.242 -11.365 0.113
-13.607 -11.918 -0.678
-13.780 -11.297 -1.637
-11.740 -10.577 -0.186
-12.871 -11.861 -0.025
-14.041 -12.640 -0.399
-13.684 -12.431 -0.264
-11.754 -10.591 -0.170
-13.471 -12.360 -0.117
-11.251 -9.883 -0.356
-13.017 -11.762 -0.278
-12.322 -10.873 -0.454
-12.242 -11.366 0.113
-14.664 -13.803 -0.036
-13.958 -11.874 -1.216
-13.654 -11.555 -1.372
-12.872 -11.857 -0.030
-13.351 -11.718 -0.809
-13.899 -12.637 -0.258
-13.596 -12.103 -0.553
-11.875 -10.620 -0.242
-11.798 -10.590 -0.200
-13.901 -11.656 -1.424
-12.557 -11.996 0.369
-12.176 -10.819 -0.360
-12.809 -11.160 -0.642
-13.654 -11.554 -1.374
-12.809 -11.158 -0.644
-13.709 -12.333 -0.442
-12.271 -10.225 -1.215
-12.721 -11.480 -0.233
-14.004 -12.528 -0.497
-10.780 -10.200 0.424
-12.990 -12.565 0.536
-12.650 -11.778 0.030
-13.091 -11.911 -0.178
-12.704 -11.244 -0.447
-11.924 -10.262 -0.656
-12.926 -11.946 -0.000
-13.849 -11.425 -1.464
-11.148 -9.881 -0.255
-13.534 -12.293 -0.283
-11.093 -10.207 0.116
-13.607 -11.918 -0.678
-13.122 -12.585 0.420
-12.773 -11.479 -0.285
-13.652 -12.429 -0.236
-13.732 -11.481 -1.329
-12.706 -11.251 -0.442
-11.212 -11.236 0.884
-13.581 -12.285 -0.346
-13.805 -12.566 -0.246
-13.656 -12.430 -0.236
-14.046 -12.493 -0.539
-13.686 -12.431 -0.267
-11.854 -10.424 -0.438
-11.966 -10.588 -0.370
-13.474 -12.359 -0.119
-13.304 -12.419 0.128
-11.058 -9.858 -0.187
-13.654 -11.567 -1.359
-12.651 -11.252 -0.386
-11.211 -10.355 0.089
-13.647 -12.419 -0.243
-13.305 -12.474 0.148
-12.863 -11.697 -0.171
-13.908 -12.526 -0.402
-13.607 -11.918 -0.678
-12.926 -11.945 -0.000
-13.700 -12.313 -0.448
-10.676 -9.488 -0.196
-12.932 -11.652 -0.279
-13.617 -12.270 -0.389
-13.384 -12.418 0.035
-13.675 -12.339 -0.354
-13.791 -12.353 -0.509
-13.829 -12.654 -0.181
-13.715 -12.346 -0.435
-12.926 -11.945 -0.000
-13.291 -12.431 0.154
-12.177 -10.812 -0.366
-13.715 -12.346 -0.435
-14.049 -12.661 -0.417
-13.323 -12.142 -0.187
-13.057 -10.889 -1.225
-13.606 -11.919 -0.674
-13.478 -12.413 -0.051
-13.057 -10.888 -1.227
-11.547 -10.048 -0.488
-12.058 -10.517 -0.519
-11.549 -9.597 -0.968
-12.033 -10.269 -0.758
-11.586 -10.430 -0.153
-13.637 -12.345 -0.312
-10.106 -9.373 0.210
-11.763 -10.598 -0.177
-11.253 -9.880 -0.362
-12.723 -11.481 -0.234
-14.010 -12.554 -0.459
-13.016 -11.763 -0.277
-11.093 -10.204 0.111
-13.569 -12.254 -0.355
-11.800 -10.590 -0.203
-13.436 -11.387 -1.248
-12.231 -12.131 0.891
-11.853 -10.424 -0.439
-13.920 -12.466 -0.476
-11.155 -9.864 -0.281
-13.021 -10.901 -1.155
-12.650 -11.252 -0.387
-12.000 -10.852 -0.168
-10.407 -9.290 -0.131
-11.999 -10.593 -0.381
-11.965 -10.581 -0.377
-12.690 -11.251 -0.427
-12.463 -10.430 -1.035
-13.478 -12.408 -0.057
-13.156 -9.733 -2.482
-14.556 -11.729 -1.835
-11.720 -9.942 -0.793
-12.809 -11.161 -0.641
-10.884 -9.609 -0.267
-12.897 -11.941 -0.086
-11.645 -9.954 -0.700
-12.199 -10.445 -0.779
-12.729 -12.676 0.931
-12.505 -12.901 1.324
-11.760 -10.277 -0.515
-11.742 -10.571 -0.175
-13.119 -12.583 0.422
-12.901 -10.895 -1.035
-11.153 -9.886 -0.256
-12.651 -11.252 -0.386
-13.283 -11.535 -0.888
-13.013 -11.741 -0.305
-13.701 -11.362 -1.487
-11.243 -9.971 -0.279
-11.954 -10.587 -0.396
-14.069 -13.568 0.481
-12.925 -11.948 0.003
-12.617 -11.205 -0.402
-12.524 -11.965 0.410
-13.683 -12.431 -0.263
-9.832 -8.784 -0.123
-11.833 -10.639 -0.193
-13.487 -12.418 -0.057
-12.609 -12.122 0.498
-12.030 -10.268 -0.757
-14.542 -11.730 -1.820
-13.480 -12.424 -0.042
-12.841 -12.580 0.702
-14.018 -12.574 -0.446
-11.722 -10.573 -0.141
-11.327 -9.970 -0.379
-12.385 -10.944 -0.462
-11.670 -10.556 -0.101
-13.484 -12.423 -0.052
-14.054 -12.593 -0.455
-13.000 -12.565 0.526
-12.810 -11.158 -0.644
-12.736 -12.657 0.905
-13.308 -12.423 0.127
-10.782 -10.196 0.416
-12.725 -11.481 -0.236
-12.870 -11.843 -0.034
-13.988 -12.498 -0.498
-12.900 -11.871 -0.046
-13.364 -10.942 -1.425
-12.233 -10.519 -0.836
-10.998 -9.869 -0.120
-12.167 -10.583 -0.613
-12.477 -11.128 -0.339
-13.684 -11.486 -1.274
-13.116 -12.589 0.428
-12.251 -11.104 -0.139
-13.483 -12.414 -0.056
-13.926 -11.706 -1.382
-14.173 -12.121 -1.062
-13.659 -13.033 0.287
-10.648 -9.372 -0.413
-12.016 -10.283 -0.727
-12.515 -11.893 0.374
-14.034 -12.494 -0.526
-11.555 -10.487 -0.119
-13.934 -11.692 -1.428
-14.125 -11.849 -1.350
-10.223 -9.923 0.689
-11.844 -10.556 -0.281
-12.466 -11.145 -0.469
-11.928 -9.826 -1.190
-13.647 -12.388 -0.270
-12.420 -11.025 -0.422
-14.549 -11.738 -1.819
-12.979 -11.139 -0.842
-11.090 -9.889 -0.190
-13.677 -12.375 -0.313
-14.098 -11.860 -1.309
-13.390 -11.502 -0.925
-12.560 -10.268 -1.263
-11.886 -11.892 0.987
-12.026 -10.276 -0.744
-12.672 -12.117 0.380
-12.957 -11.957 -0.020
-12.062 -10.500 -0.593
-13.686 -12.443 -0.250
-13.026 -10.886 -1.196
-11.536 -9.761 -0.806
-13.472 -13.137 0.654
-13.902 -11.696 -1.372
-13.311 -12.421 0.121
-11.092 -9.892 -0.189
-9.981 -8.442 -0.567
-12.733 -12.125 0.377
-12.582 -10.438 -1.153
-11.747 -10.430 -0.308
-12.855 -11.144 -0.708
-11.983 -10.587 -0.388
-13.607 -11.995 -0.633
-12.932 -11.651 -0.279
-13.768 -13.046 0.080
-14.545 -11.733 -1.819
-13.668 -11.983 -0.704
-10.042 -9.590 0.537
-10.988 -9.868 -0.110
-11.854 -10.455 -0.410
-11.699 -10.241 -0.422
-11.304 -9.950 -0.355
-12.984 -11.957 -0.047
-13.004 -12.567 0.522
-12.379 -10.495 -0.932
-11.511 -11.870 1.327
-10.860 -10.171 0.246
-12.809 -11.171 -0.632
-13.495 -12.421 -0.062
-12.643 -12.914 1.162
-11.731 -9.976 -0.769
-13.673 -11.609 -1.318
-12.222 -10.739 -0.494
-12.243 -11.090 -0.145
-13.686 -12.444 -0.251
-11.539 -10.480 -0.061
-13.494 -12.421 -0.062
-11.283 -9.541 -1.005
-12.055 -10.852 -0.191
-12.405 -11.137 -0.408
-12.616 -12.138 0.509
-13.766 -13.032 0.071
-14.021 -12.453 -0.976
-12.650 -11.260 -0.378
-11.569 -9.991 -0.709
-12.457 -11.881 0.383
-13.678 -12.439 -0.246
-10.806 -10.334 0.504
-12.668 -11.069 -0.604
-12.026 -10.278 -0.743
-10.584 -9.530 -0.065
-12.301 -10.729 -0.593
-13.913 -11.682 -1.403
-10.439 -9.306 -0.115
-11.818 -10.573 -0.282
-13.768 -13.039 0.073
-10.625 -9.707 0.016
-11.322 -10.721 0.322
-13.721 -11.486 -1.310
-12.213 -10.918 -0.301
-12.536 -11.124 -0.420
-12.618 -11.917 0.292
-12.650 -11.262 -0.376
-11.672 -10.585 -0.080
-11.092 -9.882 -0.198
-14.007 -12.548 -0.467
-13.888 -13.044 -0.038
-12.182 -10.328 -0.840
-12.829 -12.664 0.816
-11.730 -9.977 -0.768
-13.887 -12.346 -0.559
-12.023 -10.274 -0.743
-9.855 -9.188 0.347
-13.467 -11.247 -1.398
-13.687 -12.444 -0.252
-12.866 -11.616 -0.245
-14.947 -11.829 -2.264
-12.723 -12.654 0.916
-13.049 -10.891 -1.216
-11.586 -10.335 -0.251
-12.777 -10.977 -0.839
-13.687 -12.442 -0.254
-14.033 -12.665 -0.400
-9.306 -8.457 0.142
-12.799 -12.046 0.063
-11.556 -10.004 -0.532
-12.405 -11.135 -0.410
-11.727 -9.336 -1.493
-13.540 -12.263 -0.321
-11.997 -10.853 -0.163
-13.681 -12.365 -0.331
-10.793 -10.348 0.527
-11.105 -9.683 -0.420
-13.255 -10.690 -1.570
-9.763 -8.410 -0.352
-12.745 -11.536 -0.210
-12.063 -10.498 -0.597
-12.455 -10.945 -0.607
-12.261 -10.717 -0.769
-13.393 -11.499 -0.932
-12.723 -11.485 -0.230
-12.515 -11.220 -0.280
-10.671 -8.858 -0.807
-13.630 -12.351 -0.279
-12.932 -11.651 -0.279
-12.023 -10.273 -0.745
-13.560 -12.251 -0.319
-12.730 -12.121 0.376
-12.645 -11.775 0.116
-11.846 -10.549 -0.288
-11.392 -9.702 -0.751
-13.646 -12.427 -0.223
-11.206 -9.996 -0.279
-13.686 -12.443 -0.251
-12.424 -11.001 -0.462
-11.983 -10.589 -0.387
-13.712 -12.353 -0.426
-13.394 -12.753 0.349
-12.372 -12.067 0.696
-13.603 -12.069 -0.601
-13.667 -11.981 -0.704
-11.443 -9.983 -0.468
-13.712 -12.353 -0.426
-12.069 -10.838 -0.221
-12.525 -11.892 0.364
-13.530 -12.219 -0.322
-14.146 -10.598 -2.534
-12.471 -11.009 -0.468
-12.353 -10.229 -1.094
-14.036 -12.674 -0.397
-14.148 -11.749 -1.399
-12.814 -11.655 -0.186
-12.664 -11.374 -0.330
-15.757 -13.969 -0.807
-14.245 -12.740 -0.518
-12.668 -11.549 -0.117
-12.669 -11.557 -0.113
-12.642 -11.553 -0.090
-14.141 -12.741 -0.412
-13.401 -12.194 -0.289
-12.600 -11.630 0.031
-12.769 -11.791 0.013
-14.679 -13.494 -0.186
-13.014 -11.792 -0.228
-18.243 -17.197 -0.062
-11.497 -10.420 -0.076
-14.932 -13.177 -0.911
-14.245 -12.740 -0.518
-13.704 -11.780 -0.958
-13.590 -12.376 -0.226
-11.725 -10.678 -0.053
-13.359 -11.922 -0.475
-12.877 -11.336 -0.537
-12.810 -11.548 -0.285
-10.958 -9.717 -0.220
-11.086 -9.983 -0.113
-13.664 -12.526 -0.137
-13.664 -12.526 -0.135
-12.863 -11.178 -0.808
-12.723 -11.392 -0.332
-14.725 -13.514 -0.210
-15.670 -12.830 -1.838
-19.758 -18.132 -0.648
-13.051 -12.005 -0.067
-11.733 -10.668 -0.069
-13.794 -12.293 -0.484
-14.724 -13.505 -0.219
-14.760 -13.598 -0.189
-15.669 -12.833 -1.832
-12.478 -10.106 -1.382
-15.809 -14.961 0.101
-13.536 -12.370 -0.201
-14.724 -13.501 -0.221
-11.544 -10.161 -0.425
-14.142 -12.738 -0.416
-14.859 -13.421 -0.433
-11.097 -9.859 -0.244
-13.391 -11.774 -0.622
-12.826 -11.313 -0.507
-13.066 -12.000 -0.068
-13.213 -11.989 -0.262
-13.211 -11.972 -0.274
-12.648 -11.635 -0.014
-13.605 -12.060 -0.563
-12.901 -11.161 -0.800
-12.740 -11.528 -0.225
-13.066 -11.584 -0.531
-13.605 -12.059 -0.564
-13.322 -12.328 -0.052
-11.921 -9.624 -1.305
-13.689 -13.053 0.317
-12.868 -11.500 -0.387
-13.693 -12.528 -0.160
-12.343 -11.068 -0.334
-11.926 -9.606 -1.327
-12.750 -11.507 -0.260
-12.773 -11.405 -0.361
-11.204 -9.862 -0.324
-11.951 -9.654 -1.343
-15.756 -13.968 -0.807
-11.858 -10.673 -0.173
-12.318 -10.879 -0.441
-12.691 -11.471 -0.226
-13.606 -12.390 -0.226
-13.556 -12.145 -0.399
-11.086 -9.983 -0.113
-12.728 -11.616 -0.134
-12.046 -11.476 0.414
-14.991 -13.638 -0.356
-11.962 -9.657 -1.336
-11.244 -10.461 0.215
-11.305 -10.753 0.409
-13.659 -13.052 0.401
-13.073 -11.934 -0.168
-15.757 -13.969 -0.807
-13.388 -11.940 -0.432
-11.724 -9.733 -1.117
-12.240 -11.259 -0.030
-13.556 -12.144 -0.399
-13.577 -12.070 -0.526
-12.630 -11.403 -0.244
-12.037 -10.849 -0.195
-15.479 -12.710 -1.778
-9.546 -8.340 -0.214
-9.598 -8.979 0.386
-12.691 -11.471 -0.226
-15.666 -12.816 -1.846
-13.402 -12.089 -0.309
-12.106 -11.488 0.366
-15.490 -13.404 -1.110
-13.689 -12.688 -0.011
-13.456 -11.943 -0.497
-13.456 -11.944 -0.496
-13.397 -12.091 -0.408
-13.405 -12.092 -0.311
-13.038 -12.490 0.346
-17.277 -16.642 0.379
-12.837 -11.640 -0.234
-12.739 -11.184 -0.671
-13.457 -11.945 -0.496
-12.696 -11.505 -0.212
-12.820 -11.450 -0.443
-12.540 -11.397 -0.161
-13.502 -12.112 -0.379
-9.785 -8.847 0.070
-13.959 -12.706 -0.254
-13.051 -12.005 -0.069
-11.470 -10.427 -0.027
-12.601 -11.512 -0.104
-13.881 -13.274 0.400
-16.220 -13.882 -1.372
-14.060 -12.446 -0.624
-15.758 -14.444 -0.342
-15.064 -13.743 -0.316
-13.702 -12.477 -0.235
-13.555 -12.146 -0.397
-13.398 -12.092 -0.304
-12.479 -11.258 -0.254
-12.741 -11.185 -0.675
-11.540 -10.466 -0.082
-12.699 -11.387 -0.347
-13.456 -11.944 -0.496
-12.720 -11.263 -0.460
-13.600 -12.443 -0.165
-15.467 -14.469 -0.113
-13.542 -12.145 -0.385
-9.694 -8.196 -0.500
-14.746 -13.517 -0.227
-12.645 -11.439 -0.225
-14.093 -13.567 0.479
-13.862 -13.106 0.109
-10.522 -9.183 -0.343
-13.083 -11.939 -0.203
-13.318 -12.271 -0.086
-13.912 -12.731 -0.199
-14.978 -13.639 -0.338
-12.088 -10.129 -1.016
-12.791 -11.485 -0.325
-12.878 -11.345 -0.526
-9.577 -8.744 0.177
-14.789 -12.593 -1.213
-11.084 -9.778 -0.309
-10.635 -9.645 -0.188
-11.591 -9.916 -0.719
-11.479 -10.397 -0.140
-13.402 -12.088 -0.310
-14.426 -10.873 -2.673
-13.713 -13.059 0.330
-15.481 -14.636 0.135
-12.072 -11.411 0.332
-14.028 -12.622 -0.436
-11.741 -10.648 -0.092
-12.615 -11.368 -0.271
-14.645 -13.523 -0.138
-14.140 -12.739 -0.412
-11.940 -10.896 -0.065
-13.514 -12.111 -0.392
-12.615 -11.181 -0.423
-15.757 -13.969 -0.807
-13.032 -12.073 0.032
-11.153 -9.854 -0.281
-13.666 -12.528 -0.133
-15.662 -12.812 -1.848
-11.561 -9.835 -0.792
-13.970 -12.916 -0.063
-13.128 -11.951 -0.216
-16.441 -15.609 0.140
-11.621 -10.681 0.074
-13.322 -12.641 0.317
-11.624 -10.631 0.005
-15.761 -14.460 -0.336
-8.318 -7.040 -0.278
-13.441 -12.109 -0.330
-11.540 -10.463 -0.084
-15.068 -13.774 -0.293
-12.826 -12.055 0.220
-12.601 -11.519 -0.098
-14.903 -13.393 -0.583
-13.038 -12.498 0.345
-15.316 -14.449 0.107
-13.824 -12.757 -0.078
-9.694 -8.197 -0.499
-13.959 -12.704 -0.257
-13.401 -12.093 -0.309
-8.246 -7.587 0.305
-11.743 -10.636 -0.105
-12.516 -11.395 -0.151
-13.088 -11.738 -0.406
-11.758 -10.700 -0.026
-9.421 -8.578 0.158
-13.641 -12.499 -0.131
-12.815 -11.569 -0.268
-13.329 -12.553 0.083
-14.933 -13.138 -0.968
-10.611 -9.529 -0.083
-12.761 -11.548 -0.229
-13.320 -12.024 -0.345
-10.684 -9.372 -0.352
-15.162 -14.212 -0.007
-14.868 -13.179 -0.772
-12.630 -10.736 -0.890
-9.878 -8.657 -0.289
-13.021 -11.918 -0.090
-12.606 -11.413 -0.244
-13.718 -13.052 0.285
-9.846 -8.488 -0.356
-15.367 -12.607 -1.752
-12.538 -11.406 -0.150
-14.048 -13.043 -0.011
-12.477 -11.183 -0.326
-11.080 -9.803 -0.262
-12.722 -11.412 -0.324
-13.008 -11.918 -0.127
-11.401 -9.348 -1.070
-11.899 -10.790 -0.119
-15.509 -13.859 -0.687
-11.166 -9.864 -0.286
-12.762 -11.503 -0.284
-19.670 -18.216 -0.468
-9.452 -8.460 0.003
-12.934 -11.899 -0.061
-13.051 -12.007 -0.066
-12.841 -11.520 -0.322
-12.921 -11.611 -0.344
-15.416 -14.375 -0.118
-14.624 -13.511 -0.132
-12.798 -11.844 0.029
-12.704 -11.539 -0.184
-11.925 -9.618 -1.315
-12.616 -11.382 -0.253
-14.173 -12.750 -0.425
-11.474 -10.193 -0.302
-9.650 -8.860 0.220
-9.800 -8.471 -0.351
-12.800 -11.416 -0.402
-15.622 -14.660 -0.086
-11.680 -10.373 -0.415
-9.835 -8.649 -0.171
-9.009 -7.790 -0.210
-12.525 -11.278 -0.255
-12.698 -11.543 -0.183
-13.582 -12.549 -0.126
-12.717 -12.087 0.362
-11.620 -10.637 0.015
-19.757 -18.134 -0.649
-15.056 -13.721 -0.333
-11.225 -9.845 -0.383
-12.788 -11.588 -0.260
-12.591 -10.237 -1.374
-15.987 -14.059 -0.983
-9.826 -8.720 -0.299
-11.293 -10.269 -0.016
-12.517 -12.163 0.632
-13.156 -12.244 -0.012
-15.506 -13.122 -1.434
-11.288 -10.083 -0.243
-13.709 -12.423 -0.296
-14.735 -13.524 -0.210
-12.931 -11.904 -0.060
-12.903 -11.976 0.042
-11.086 -9.848 -0.228
-15.517 -13.149 -1.418
-12.780 -11.848 0.056
-12.757 -11.808 0.002
-15.115 -13.759 -0.405
-12.975 -11.425 -0.649
-12.090 -10.779 -0.330
-11.334 -10.281 -0.112
-13.162 -11.618 -0.561
-11.526 -10.266 -0.271
-10.925 -10.232 0.274
-13.614 -12.059 -0.574
-17.390 -17.024 0.627
-11.925 -11.353 0.411
-14.435 -13.420 -0.015
-12.970 -12.114 0.129
-11.743 -10.635 -0.106
-15.668 -12.827 -1.835
-11.632 -10.312 -0.313
-11.375 -10.072 -0.347
-16.040 -14.977 -0.063
-13.195 -12.616 0.417
-16.213 -13.991 -1.246
-12.801 -12.000 0.174
-12.608 -10.895 -0.781
-13.639 -12.732 0.068
-13.366 -11.891 -0.471
-13.443 -13.488 1.051
-15.114 -12.959 -1.197
-15.026 -12.928 -1.144
-14.360 -12.847 -0.519
-14.340 -12.847 -0.504
-16.750 -14.364 -1.430
-15.027 -12.926 -1.146
-12.859 -11.693 -0.175
-13.950 -12.392 -0.552
-16.750 -14.364 -1.430
-12.265 -11.059 -0.233
-14.824 -14.436 0.485
-15.115 -12.959 -1.199
-13.475 -12.637 0.159
-13.179 -12.995 0.826
-15.226 -12.982 -1.244
-13.414 -11.975 -0.441
-13.035 -11.628 -0.377
-14.716 -13.593 -0.134
-13.026 -11.866 -0.183
-16.730 -14.362 -1.411
-12.100 -10.597 -0.495
-10.939 -11.730 1.782
-15.032 -12.517 -1.540
-11.508 -12.180 1.649
-12.130 -10.647 -0.475
-13.694 -12.346 -0.334
-13.260 -12.540 0.272
-11.833 -12.288 1.459
-13.137 -12.090 -0.062
-13.355 -11.902 -0.449
-14.803 -13.268 -0.503
-12.900 -12.473 0.572
-14.797 -13.045 -0.758
-12.401 -11.939 0.527
-12.731 -11.950 -0.046
-14.488 -13.589 0.096
-15.026 -12.931 -1.140
-15.115 -12.959 -1.198
-13.666 -12.743 0.011
-11.528 -10.474 -0.111
-13.355 -11.899 -0.452
-13.415 -11.983 -0.434
-12.279 -10.925 -0.367
-15.026 -12.925 -1.148
-16.730 -14.363 -1.411
-12.919 -12.208 0.307
-11.501 -11.893 1.370
-12.805 -12.721 0.932
-12.265 -11.058 -0.233
-13.478 -12.642 0.160
-13.950 -12.409 -0.534
-13.037 -11.675 -0.348
-16.941 -15.142 -0.882
-12.284 -11.054 -0.256
-11.574 -10.626 0.019
-13.943 -12.529 -0.426
-11.622 -11.503 0.873
-14.431 -13.131 -0.255
-13.695 -12.351 -0.331
-12.401 -11.941 0.529
-11.704 -10.779 0.072
-14.056 -12.768 -0.314
-12.535 -10.814 -0.714
-12.402 -11.942 0.529
-12.265 -11.058 -0.234
-15.026 -12.932 -1.139
-15.682 -13.993 -0.700
-12.107 -11.001 -0.114
-13.950 -12.395 -0.549
-10.819 -10.025 0.190
-15.113 -12.978 -1.139
-15.026 -12.927 -1.143
-14.156 -13.035 -0.215
-15.114 -12.958 -1.199
-12.348 -10.997 -0.345
-13.308 -12.643 0.326
-11.891 -10.337 -0.544
-13.642 -12.353 -0.277
-16.774 -14.380 -1.441
-13.296 -12.556 0.250
-14.717 -13.588 -0.140
-11.611 -10.448 -0.164
-15.026 -12.923 -1.146
-11.612 -10.538 -0.127
-15.020 -12.949 -1.115
-15.592 -14.154 -0.558
-16.778 -14.362 -1.458
-13.196 -12.647 0.439
-12.865 -12.062 0.177
-13.493 -12.585 0.087
-13.459 -12.570 0.090
-13.430 -13.896 1.332
-16.710 -14.362 -1.393
-13.055 -12.021 -0.049
-12.747 -11.660 -0.154
-12.402 -11.936 0.522
-14.087 -12.928 -0.153
-15.027 -12.929 -1.143
-12.781 -10.946 -0.888
-11.707 -10.874 0.165
-14.805 -13.266 -0.508
-12.056 -11.554 0.478
-13.037 -11.674 -0.348
-15.115 -12.959 -1.198
-16.861 -15.338 -0.545
-14.575 -13.636 0.051
-14.804 -13.268 -0.506
-15.796 -13.645 -1.199
-12.393 -11.007 -0.370
-12.388 -11.864 0.467
-13.038 -11.674 -0.348
-12.686 -10.823 -0.863
-16.100 -15.005 -0.287
-13.484 -12.564 0.070
-16.779 -14.366 -1.457
-11.587 -10.353 -0.298
-14.843 -13.010 -0.827
-16.774 -14.343 -1.474
-14.587 -13.289 -0.262
-11.539 -10.791 0.245
-10.549 -9.968 0.314
-11.772 -10.598 -0.199
-16.779 -14.366 -1.457
-14.756 -12.994 -0.781
-12.168 -10.683 -0.478
-15.113 -12.974 -1.141
-11.888 -12.292 1.381
-13.693 -12.737 0.017
-16.731 -14.363 -1.411
-12.891 -12.035 0.117
-14.870 -13.071 -0.795
-12.168 -10.683 -0.478
-14.842 -13.009 -0.826
-12.284 -11.059 -0.251
-10.746 -10.029 0.274
-11.989 -10.534 -0.443
-14.804 -13.011 -0.811
-13.398 -13.058 0.577
-12.198 -11.876 0.668
-15.682 -13.992 -0.701
-13.451 -13.599 0.959
-11.747 -10.752 0.005
-14.055 -12.798 -0.268
-12.685 -10.823 -0.863
-13.172 -11.818 -0.329
-15.606 -13.988 -0.629
-12.169 -11.269 0.074
-11.911 -12.310 1.400
-12.641 -11.256 -0.371
-11.243 -11.634 1.376
-13.715 -13.052 0.349
-12.143 -11.455 0.284
-12.746 -11.509 -0.229
-12.713 -11.509 -0.197
-14.867 -13.073 -0.791
-13.798 -12.110 -0.673
-13.700 -12.344 -0.343
-15.957 -13.999 -0.976
-12.064 -10.473 -0.588
-14.717 -13.570 -0.158
-12.478 -12.911 1.418
-11.581 -10.856 0.261
-13.950 -12.388 -0.556
-13.355 -11.897 -0.453
-13.692 -12.737 0.019
-14.295 -13.315 -0.017
-11.519 -10.416 -0.158
-13.999 -12.919 -0.165
-12.608 -11.248 -0.347
-11.504 -10.467 -0.036
-16.730 -14.364 -1.410
-12.265 -11.054 -0.236
-11.387 -10.224 -0.201
-11.853 -10.644 -0.201
-12.362 -12.021 0.651
-11.741 -11.102 0.355
-11.802 -10.099 -0.731
-13.208 -13.229 1.012
-13.637 -12.734 0.069
-16.918 -15.333 -0.606
-12.569 -12.909 1.324
-16.055 -14.990 -0.261
-12.189 -12.214 1.028
-11.707 -10.862 0.152
-14.508 -13.296 -0.177
-14.515 -13.293 -0.202
-11.230 -10.441 0.214
-11.392 -12.234 1.815
-15.113 -12.976 -1.141
-11.757 -10.588 -0.197
-11.392 -12.234 1.815
-11.859 -10.503 -0.448
-15.662 -14.267 -0.405
-12.975 -12.404 0.407
-11.507 -12.188 1.656
-13.948 -12.378 -0.564
-12.401 -11.941 0.529
-12.866 -12.060 0.171
-14.865 -13.071 -0.791
-15.016 -12.952 -1.107
-14.095 -12.834 -0.279
-11.965 -10.721 -0.298
-11.707 -10.874 0.165
-11.154 -10.886 0.740
-11.417 -10.317 -0.115
-12.714 -11.508 -0.199
-12.346 -10.969 -0.378
-13.461 -10.893 -1.598
-11.497 -11.491 0.988
-15.074 -12.947 -1.172
-11.460 -10.804 0.348
-14.533 -13.105 -0.410
-13.687 -12.309 -0.364
-12.208 -11.024 -0.221
-12.565 -10.812 -0.747