-16.715 -15.110 -0.633
-16.656 -14.795 -0.861
-17.874 -16.559 -0.389
-16.798 -14.500 -1.328
-14.049 -12.510 -0.655
-15.796 -13.938 -0.865
-16.799 -14.500 -1.329
-20.852 -18.509 -1.441
-13.354 -12.656 0.309
-17.735 -15.914 -0.816
-16.585 -14.694 -0.896
-17.226 -15.605 -0.629
-16.626 -15.185 -0.443
-15.707 -14.253 -0.478
-19.081 -18.790 0.630
-17.066 -15.645 -0.427
-15.408 -14.397 -0.070
-16.075 -14.899 -0.204
-18.240 -16.854 -0.405
-15.375 -13.562 -0.834
-14.801 -13.685 -0.193
-15.821 -14.623 -0.282
-15.194 -13.555 -0.688
-16.304 -15.080 -0.249
-15.322 -14.151 -0.178
-17.166 -16.084 -0.239
-17.804 -15.137 -1.735
-17.315 -14.280 -2.126
-18.432 -17.411 -0.056
-17.910 -15.159 -1.823
-13.516 -12.529 -0.211
-15.792 -14.861 0.061
-15.290 -14.331 -0.018
-16.451 -15.057 -0.431
-17.210 -16.227 0.013
-14.906 -13.315 -0.679
-17.037 -16.737 0.571
-13.499 -12.471 -0.109
-14.614 -13.591 -0.044
-17.644 -15.979 -0.702
-16.719 -16.021 0.284
-14.848 -14.432 0.537
-14.592 -14.363 0.687
-18.177 -15.140 -2.125
-17.654 -15.280 -1.381
-16.564 -15.225 -0.385
-14.265 -13.011 -0.313
-18.526 -17.488 -0.077
-16.157 -15.123 -0.061
-16.328 -15.683 0.351
-17.532 -16.200 -0.387
-15.176 -14.096 -0.090
-14.982 -13.875 -0.111
-16.363 -16.057 0.686
-14.848 -14.433 0.538
-14.191 -12.866 -0.334
-17.800 -15.137 -1.730
-16.630 -15.099 -0.537
-15.871 -12.755 -2.142
-16.538 -15.051 -0.494
-16.965 -15.885 -0.175
-12.652 -11.860 0.130
-14.442 -14.417 0.933
-15.480 -14.120 -0.367
-17.627 -16.540 -0.150
-18.271 -17.251 -0.042
-16.932 -16.944 0.947
-15.925 -15.243 0.222
-12.491 -11.188 -0.306
-15.613 -14.561 -0.068
-15.938 -14.789 -0.261
-17.849 -17.062 0.171
-13.181 -11.606 -0.577
-16.436 -15.458 0.015
-14.614 -13.595 -0.040
-17.652 -17.147 0.507
-20.008 -19.678 0.658
-12.260 -12.397 1.111
-14.974 -14.403 0.425
-16.709 -16.815 1.084
-14.592 -14.354 0.678
-16.300 -15.078 -0.247
-13.674 -11.458 -1.242
-12.952 -11.459 -0.490
-17.647 -15.988 -0.697
-16.196 -15.237 -0.085
-16.549 -15.041 -0.507
-15.959 -14.637 -0.332
-14.678 -13.221 -0.461
-17.648 -15.988 -0.699
-15.835 -15.050 0.175
-18.316 -16.851 -0.484
-15.729 -14.257 -0.496
-17.652 -17.137 0.496
-15.970 -14.203 -0.788
-14.617 -13.595 -0.043
-11.358 -9.949 -0.509
-14.455 -14.352 0.829
-18.838 -18.323 0.458
-16.332 -15.705 0.374
-16.730 -16.237 0.406
-15.539 -14.837 0.198
-14.712 -14.428 0.671
-14.459 -13.225 -0.248
-17.155 -15.679 -0.476
-17.212 -16.229 0.013
-17.799 -15.138 -1.729
-13.638 -12.661 -0.074
-16.823 -16.108 0.123
-15.268 -14.265 -0.030
-16.701 -15.970 0.238
-15.757 -15.325 0.490
-14.981 -14.406 0.404
-17.650 -15.987 -0.702
-14.172 -12.822 -0.358
-15.960 -14.637 -0.335
-16.222 -15.196 -0.034
-16.437 -15.497 0.052
-12.151 -10.468 -0.716
-16.222 -15.196 -0.034
-14.642 -13.638 -0.022
-15.270 -14.265 -0.032
-15.337 -14.839 0.500
-20.513 -19.732 0.188
-14.505 -13.639 0.115
-13.415 -12.557 0.150
-10.844 -10.311 0.407
-19.163 -18.545 0.308
-16.114 -15.157 0.033
-16.333 -15.705 0.373
-14.777 -14.426 0.603
-16.115 -15.159 0.032
-16.247 -14.954 -0.300
-16.326 -16.052 0.719
-15.703 -14.671 -0.042
-15.677 -15.173 0.493
-14.452 -13.218 -0.252
-15.252 -14.100 -0.177
-14.439 -13.191 -0.304
-14.680 -13.220 -0.464
-15.686 -14.934 0.078
-15.974 -15.166 0.135
-16.132 -15.246 0.115
-18.602 -17.551 -0.092
-14.716 -14.430 0.667
-14.716 -14.427 0.666
-17.603 -15.950 -0.685
-16.340 -15.462 0.096
-12.568 -11.199 -0.410
-17.454 -16.218 -0.231
-17.243 -16.540 0.272
-14.418 -14.733 1.288
-16.331 -15.680 0.346
-15.839 -14.914 -0.002
-17.791 -17.407 0.458
-15.010 -14.716 0.670
-16.114 -15.258 0.116
-14.643 -13.382 -0.343
-15.973 -15.165 0.136
-14.464 -14.135 0.666
-15.517 -14.267 -0.272
-16.858 -16.010 0.130
-14.958 -14.301 0.333
-16.452 -16.552 0.920
-14.663 -14.291 0.605
-13.301 -12.597 0.253
-14.662 -14.292 0.607
-15.837 -15.049 0.172
-16.202 -15.261 0.032
-18.496 -17.599 0.073
-16.450 -15.548 -0.010
-13.856 -12.878 -0.003
-16.443 -15.465 0.017
-14.176 -13.250 0.064
-13.348 -12.757 0.359
-17.274 -15.783 -0.494
-15.601 -15.117 0.454
-16.423 -15.618 0.191
-16.632 -15.181 -0.453
-16.235 -15.192 -0.052
-13.343 -12.362 0.021
-13.458 -12.562 0.112
-14.482 -13.821 -0.023
-15.659 -15.344 0.622
-17.599 -15.927 -0.724
-15.941 -15.219 0.228
-12.985 -11.686 -0.302
-16.222 -15.465 0.212
-14.602 -14.065 0.419
-17.650 -15.987 -0.701
-13.328 -11.844 -0.540
-16.331 -16.021 0.683
-15.074 -14.302 0.225
-15.113 -14.094 -0.032
-10.834 -10.294 0.407
-15.339 -14.111 -0.242
-14.713 -14.417 0.662
-16.516 -16.022 0.395
-16.454 -15.570 0.025
-17.336 -16.821 0.309
-13.243 -11.686 -0.563
-13.112 -12.827 0.559
-17.636 -16.537 -0.161
-14.663 -14.291 0.606
-16.145 -15.200 -0.037
-14.969 -14.399 0.428
-14.320 -13.149 -0.190
-12.253 -11.809 0.546
-15.506 -15.044 0.518
-16.339 -15.460 0.095
-17.132 -15.592 -0.592
-16.303 -15.075 -0.255
-14.202 -13.404 0.192
-16.144 -14.910 -0.274
-15.698 -14.663 -0.045
-14.808 -13.679 -0.204
-16.077 -15.198 0.112
-11.538 -11.614 1.069
-14.714 -14.425 0.668
-14.176 -13.250 0.064
-15.105 -14.722 0.480
-14.616 -13.593 -0.044
-14.680 -13.221 -0.463
-15.236 -14.408 0.113
-16.164 -14.101 -1.070
-13.668 -10.630 -2.144
-13.166 -12.399 0.168
-15.712 -14.822 0.101
-15.882 -14.986 0.057
-15.866 -13.845 -1.025
-13.492 -12.675 0.126
-15.113 -14.102 -0.022
-13.577 -13.121 0.515
-17.009 -16.771 0.573
-13.318 -11.682 -0.641
-15.752 -15.334 0.508
-15.965 -15.191 0.116
-13.456 -12.560 0.112
-13.248 -12.561 0.309
-14.176 -13.249 0.064
-11.953 -11.700 0.662
-19.118 -18.818 0.619
-13.911 -13.398 0.402
-14.644 -13.631 -0.034
-13.441 -11.501 -0.979
-13.446 -12.839 0.380
-14.135 -12.687 -0.439
-18.393 -17.749 0.215
-19.467 -18.743 0.270
-13.966 -13.226 0.206
-14.507 -13.643 0.115
-16.142 -14.911 -0.270
-11.014 -11.062 0.937
-15.464 -14.610 0.134
-14.015 -12.883 -0.139
-17.704 -15.987 -0.755
-13.621 -13.253 0.608
-16.260 -15.195 -0.074
-14.651 -14.294 0.621
-15.221 -14.387 0.132
-15.422 -14.649 0.210
-16.149 -15.905 0.739
-12.598 -11.220 -0.399
-15.934 -15.332 0.398
-13.037 -11.423 -0.616
-15.896 -14.857 -0.049
-12.684 -12.731 0.833
-12.242 -11.163 -0.095
-16.893 -16.161 0.270
-18.138 -17.398 0.215
-15.961 -14.636 -0.335
-15.131 -15.113 0.951
-16.292 -15.996 0.671
-15.449 -15.012 0.539
-14.899 -14.810 0.503
-15.282 -14.791 0.385
-17.836 -16.819 -0.040
-16.292 -15.344 0.040
-13.286 -12.472 0.134
-16.257 -16.132 0.741
-15.727 -14.630 -0.108
-16.016 -15.094 0.075
-12.536 -11.441 -0.118
-16.641 -15.899 0.254
-16.158 -15.002 -0.170
-12.835 -11.518 -0.382
-16.134 -15.895 0.755
-15.645 -14.562 -0.094
-13.881 -13.448 0.551
-16.193 -15.660 0.462
-15.610 -14.738 -0.242
-16.121 -15.351 0.219
-14.658 -14.290 0.609
-13.885 -12.949 0.035
-16.789 -17.164 1.292
-13.133 -12.040 -0.124
-14.714 -14.444 0.682
-13.290 -12.388 0.091
-14.554 -13.576 -0.111
-13.136 -12.909 0.733
-16.296 -15.645 0.349
-16.198 -16.195 0.852
-11.238 -10.320 0.057
-15.733 -14.985 0.173
-14.388 -12.976 -0.427
-13.419 -12.487 0.072
-14.287 -13.559 0.264
-14.239 -14.300 1.044
-15.585 -15.054 0.475
-16.314 -15.618 0.303
-15.104 -14.125 0.005
-18.337 -17.557 0.184
-15.595 -15.055 0.435
-17.117 -16.285 0.165
-14.200 -13.249 0.042
-13.673 -11.435 -1.261
-15.735 -15.204 0.464
-9.770 -9.232 0.454
-14.711 -14.421 0.668
-17.471 -16.397 -0.126
-15.123 -13.848 -0.304
-17.141 -16.391 0.189
-13.975 -13.224 0.195
-12.478 -12.130 0.561
-14.705 -14.402 0.662
-12.871 -11.241 -0.636
-15.611 -14.779 0.150
-11.110 -11.189 1.060
-11.717 -10.532 -0.184
-12.210 -11.312 0.093
-12.513 -11.673 0.088
-15.491 -14.925 0.406
-15.753 -15.224 0.471
-15.940 -15.800 0.646
-16.281 -16.100 0.699
-17.091 -15.686 -0.471
-16.223 -15.092 -0.183
-15.805 -15.184 0.348
-12.564 -11.436 -0.156
-12.993 -12.104 0.052
-15.425 -14.650 0.208
-15.794 -15.331 0.494
-15.960 -14.636 -0.334
-12.461 -11.261 -0.209
-11.237 -10.311 0.049
-14.220 -14.383 1.109
-16.408 -15.642 0.179
-14.076 -13.313 0.232
-11.471 -10.170 -0.289
-12.483 -11.200 -0.292
-11.786 -11.439 0.337
-15.359 -14.776 0.410
-12.024 -10.695 -0.318
-15.412 -14.123 -0.300
-11.114 -11.206 1.071
-14.148 -13.777 0.616
-16.358 -15.339 -0.034
-14.170 -13.176 -0.011
-15.345 -14.131 -0.226
-16.981 -16.720 0.338
-14.721 -14.288 0.544
-13.373 -11.469 -0.919
-12.868 -11.678 -0.499
-11.269 -11.241 0.962
-16.388 -15.875 0.475
-10.381 -9.777 0.353
-15.909 -15.389 0.372
-15.018 -14.764 0.681
-13.949 -13.102 0.123
-12.913 -12.081 0.182
-15.277 -14.736 0.436
-13.118 -11.517 -0.586
-9.871 -7.981 -0.919
-12.982 -11.348 -0.635
-16.167 -15.912 0.672
-16.266 -15.826 0.549
-14.513 -12.999 -0.526
-15.471 -14.268 -0.225
-14.579 -14.292 0.467
-18.489 -17.483 -0.044
-18.136 -17.514 0.344
-14.177 -12.839 -0.457
-13.860 -12.183 -0.935
-10.624 -10.247 0.623
-15.066 -13.948 -0.156
-14.816 -14.422 0.570
-15.336 -14.090 -0.284
-14.714 -14.419 0.660
-12.861 -12.042 0.084
-14.671 -14.322 0.634
-14.240 -14.461 1.202
-16.228 -15.198 -0.037
-14.490 -13.228 -0.260
-15.156 -14.629 0.469
-12.178 -11.237 -0.128
-12.783 -12.592 0.775
-16.772 -16.054 0.256
-15.959 -14.646 -0.325
-11.747 -11.250 0.309
-15.846 -15.070 0.187
-13.149 -12.508 0.339
-13.273 -11.683 -0.626
-15.213 -14.191 -0.092
-14.664 -14.480 0.723
-11.509 -9.428 -1.094
-15.035 -14.494 0.284
-14.450 -14.344 0.814
-14.592 -13.591 -0.018
-18.113 -17.584 0.449
-13.807 -13.229 0.372
-17.478 -16.727 0.205
-15.367 -14.886 0.454
-16.043 -14.727 -0.324
-9.770 -9.233 0.455
-14.547 -13.128 -0.431
-16.907 -16.049 0.080
-15.579 -14.988 0.363
-16.832 -16.019 0.150
-15.569 -14.452 -0.151
-16.582 -15.646 0.003
-9.361 -8.949 0.586
-15.217 -14.935 0.612
-17.536 -17.328 0.771
-18.456 -17.495 0.001
-14.293 -13.449 0.017
-11.653 -10.721 -0.089
-17.299 -15.866 -0.444
-15.568 -15.016 0.411
-16.243 -15.648 0.398
-10.555 -10.340 0.639
-17.602 -16.841 0.223
-18.390 -17.536 0.103
-12.287 -11.921 0.418
-18.971 -18.522 0.516
-12.854 -11.651 -0.211
-13.935 -13.385 0.419
-18.422 -18.016 0.451
-13.632 -12.457 -0.402
-16.736 -16.963 1.164
-11.503 -9.428 -1.090
-13.579 -12.568 -0.154
-15.926 -15.053 0.116
-13.865 -12.166 -0.942
-15.644 -14.955 0.286
-16.891 -16.154 0.214
-15.851 -15.941 0.740
-18.819 -18.324 0.464
-14.639 -14.915 1.204
-15.770 -15.015 0.237
-14.268 -14.187 0.888
-19.620 -19.071 0.436
-16.718 -15.456 -0.356
-13.500 -12.649 0.111
-13.383 -11.870 -0.524
-13.020 -11.934 -0.114
-13.849 -12.626 -0.287
-14.206 -11.696 -1.643
-13.446 -12.571 0.098
-13.138 -11.866 -0.290
-13.092 -11.925 -0.194
-13.338 -11.768 -0.592
-13.872 -11.768 -1.267
-13.383 -11.870 -0.524
-13.846 -12.631 -0.279
-14.563 -13.819 0.076
-15.494 -12.341 -2.202
-15.494 -12.341 -2.203
-14.460 -11.680 -2.001
-13.024 -12.005 -0.050
-13.158 -12.002 -0.155
-13.699 -13.132 0.418
-13.137 -11.881 -0.275
-13.406 -11.955 -0.499
-12.983 -10.955 -1.028
-12.156 -11.061 -0.100
-12.608 -11.325 -0.282
-14.188 -11.417 -1.804
-13.137 -11.875 -0.282
-13.027 -11.921 -0.131
-13.481 -10.917 -1.576
-12.713 -11.547 -0.271
-13.333 -12.578 0.238
-14.188 -11.419 -1.801
-13.481 -10.916 -1.577
-14.275 -11.816 -1.541
-13.143 -11.867 -0.295
-13.573 -12.910 0.196
-15.487 -12.343 -2.194
-12.572 -10.260 -1.496
-11.384 -10.356 -0.046
-12.309 -10.667 -0.653
-13.029 -11.914 -0.135
-12.985 -10.951 -1.033
-13.410 -11.955 -0.501
-12.983 -10.954 -1.030
-15.487 -12.344 -2.193
-12.234 -10.274 -1.127
-12.354 -12.304 0.919
-12.607 -10.811 -0.862
-14.573 -13.819 0.067
-12.610 -11.327 -0.282
-13.554 -12.616 0.049
-15.487 -12.343 -2.193
-12.671 -10.997 -0.678
-14.573 -13.819 0.067
-12.944 -11.630 -0.316
-14.587 -13.819 0.053
-13.095 -11.908 -0.212
-12.837 -11.137 -0.953
-12.319 -10.864 -0.473
-13.850 -12.648 -0.264
-14.495 -12.288 -1.240
-12.856 -11.832 -0.108
-12.804 -11.203 -0.586
-13.352 -12.635 0.273
-12.319 -10.859 -0.475
-12.375 -12.376 0.962
-13.029 -11.923 -0.127
-12.895 -12.416 0.480
-12.320 -10.859 -0.477
-12.910 -12.099 0.182
-12.931 -11.905 -0.102
-12.594 -10.819 -0.835
-12.470 -10.428 -1.114
-12.302 -10.433 -0.892
-13.686 -13.040 0.331
-13.249 -11.636 -0.661
-12.320 -10.846 -0.488
-12.326 -10.882 -0.452
-12.459 -11.660 0.205
-11.726 -10.118 -0.610
-12.992 -11.793 -0.222
-12.023 -10.453 -0.575
-12.671 -11.008 -0.669
-12.816 -11.875 0.048
-13.268 -10.679 -1.639
-15.463 -12.375 -2.137
-12.341 -12.221 0.829
-13.117 -12.047 -0.069
-10.967 -10.064 0.066
-14.606 -12.457 -1.186
-14.135 -11.707 -1.505
-13.117 -12.049 -0.066
-13.790 -11.716 -1.240
-11.287 -9.559 -0.784
-14.590 -13.819 0.050
-13.575 -12.905 0.190
-12.241 -10.732 -0.527
-10.220 -9.098 -0.126
-12.778 -11.782 -0.002
-13.044 -11.921 -0.149
-11.819 -11.286 0.355
-13.457 -11.324 -1.130
-12.253 -11.085 -0.175
-13.803 -12.658 -0.208
-10.216 -8.564 -0.678
-14.511 -12.279 -1.263
-14.590 -13.819 0.050
-11.361 -10.357 -0.000
-12.987 -11.864 -0.136
-9.617 -8.907 0.254
-13.075 -11.911 -0.189
-13.464 -11.888 -0.591
-12.457 -11.667 0.212
-12.296 -11.027 -0.286
-10.251 -9.333 0.070
-13.112 -11.926 -0.213
-14.043 -11.910 -1.275
-13.144 -11.892 -0.273
-12.319 -10.856 -0.480
-11.906 -10.436 -0.475
-12.377 -12.375 0.959
-12.320 -10.851 -0.485
-13.395 -11.865 -0.541
-13.666 -12.699 0.005
-11.475 -10.021 -0.478
-15.462 -12.377 -2.135
-13.117 -12.048 -0.068
-13.989 -11.384 -1.637
-13.716 -13.134 0.403
-13.792 -11.704 -1.260
-12.319 -10.854 -0.483
-12.676 -10.996 -0.684
-11.985 -11.765 0.762
-10.745 -9.668 -0.090
-11.289 -9.566 -0.775
-12.239 -10.702 -0.552
-13.040 -12.046 -0.019
-12.239 -10.705 -0.550
-12.199 -11.035 -0.172
-14.415 -12.435 -1.009
-11.716 -10.075 -0.640
-15.463 -12.373 -2.139
-12.526 -10.252 -1.456
-11.332 -10.367 0.026
-13.517 -12.609 0.083
-12.238 -10.743 -0.497
-12.991 -11.960 -0.038
-12.350 -10.848 -0.517
-12.896 -10.714 -1.219
-13.772 -11.728 -1.209
-13.259 -12.058 -0.223
-12.279 -10.786 -0.495
-10.702 -9.730 0.011
-13.173 -12.158 -0.013
-12.320 -10.851 -0.484
-13.131 -11.848 -0.298
-12.806 -11.822 0.004
-12.732 -11.260 -0.474
-11.361 -10.358 0.000
-11.744 -9.932 -0.821
-13.019 -10.922 -1.096
-12.399 -11.318 -0.080
-12.737 -12.092 0.234
-13.100 -11.823 -0.287
-14.192 -12.265 -0.949
-12.320 -10.851 -0.487
-14.590 -13.819 0.050
-13.946 -11.461 -1.844
-11.745 -9.933 -0.821
-12.012 -10.676 -0.326
-11.583 -9.545 -1.036
-12.755 -11.851 0.071
-13.413 -11.866 -0.559
-10.873 -11.071 1.165
-12.476 -11.384 -0.097
-13.150 -12.159 0.010
-12.191 -11.954 0.729
-12.525 -12.392 0.827
-13.761 -11.679 -1.224
-10.449 -9.195 -0.258
-11.321 -10.846 0.503
-13.702 -13.109 0.387
-12.676 -10.997 -0.684
-12.026 -10.462 -0.571
-12.318 -10.856 -0.481
-11.935 -11.224 0.286
-13.008 -11.873 -0.138
-13.019 -10.927 -1.092
-13.268 -10.679 -1.639
-12.179 -10.760 -0.461
-12.545 -11.259 -0.288
-11.837 -10.978 0.116
-13.268 -10.680 -1.639
-13.633 -13.141 0.493
-13.006 -12.442 0.393
-11.361 -10.357 0.001
-13.946 -11.460 -1.845
-11.476 -10.470 -0.015
-14.511 -12.280 -1.263
-11.819 -11.288 0.356
-12.320 -10.844 -0.489
-12.826 -12.136 0.275
-12.026 -10.462 -0.571
-14.590 -13.819 0.050
-13.743 -12.759 -0.030
-13.042 -11.902 -0.160
-13.055 -11.695 -0.371
-10.186 -9.435 0.253
-14.361 -11.593 -1.976
-11.744 -9.933 -0.821
-10.697 -9.428 -0.283
-14.499 -11.892 -1.737
-12.900 -10.714 -1.223
-13.268 -10.679 -1.639
-13.606 -12.762 0.113
-12.377 -12.380 0.963
-12.970 -11.870 -0.161
-12.873 -10.928 -0.970
-14.409 -12.424 -1.012
-13.020 -10.925 -1.095
-13.064 -11.890 -0.189
-13.406 -11.870 -0.548
-12.237 -10.675 -0.556
-14.491 -12.283 -1.240
-12.753 -11.923 0.167
-12.578 -10.258 -1.514
-12.617 -10.810 -0.875
-12.233 -10.726 -0.524
-10.719 -9.625 -0.104
-12.200 -10.761 -0.466
-13.141 -11.892 -0.264
-12.334 -10.719 -0.688
-12.711 -10.865 -0.863
-11.715 -9.944 -0.781
-12.550 -11.295 -0.274
-12.982 -10.956 -1.026
-13.348 -12.406 0.048
-12.815 -11.312 -0.525
-13.098 -11.923 -0.201
-12.668 -11.000 -0.674
-13.768 -11.800 -1.086
-12.919 -10.714 -1.247
-13.402 -12.970 0.548
-13.481 -10.916 -1.577
-14.459 -11.677 -2.003
-12.299 -10.904 -0.403
-14.176 -12.275 -0.923
-13.181 -12.270 0.068
-13.104 -11.909 -0.216
-12.893 -10.929 -1.004
-14.700 -13.831 -0.044
-12.868 -12.415 0.507
-13.566 -12.060 -0.538
-12.859 -12.978 1.118
-12.122 -10.862 -0.248
-14.586 -12.477 -1.146
-13.020 -11.915 -0.129
-10.200 -9.024 -0.201
-13.174 -11.870 -0.323
-13.437 -12.627 0.178
-12.563 -10.867 -0.712
-11.337 -10.414 0.068
-12.348 -10.865 -0.501
-12.942 -11.856 -0.170
-12.847 -10.947 -0.920
-12.189 -10.753 -0.445
-12.024 -10.491 -0.537
-13.019 -11.722 -0.320
-11.647 -11.317 0.675
-12.533 -10.692 -0.978
-12.757 -11.900 0.127
-13.300 -12.152 -0.152
-10.965 -10.463 0.505
-12.720 -12.451 0.696
-13.516 -12.537 0.016
-15.909 -12.358 -2.621
-10.562 -9.277 -0.289
-12.157 -11.060 -0.103
-12.865 -12.056 0.065
-11.348 -10.196 -0.194
-13.350 -11.930 -0.445
-12.529 -10.441 -1.095
-10.314 -9.555 0.234
-12.849 -11.824 -0.111
-12.881 -12.416 0.495
-12.849 -11.307 -0.568
-13.120 -12.049 -0.070
-12.402 -11.860 0.459
-10.731 -9.422 -0.325
-13.210 -11.939 -0.305
-13.076 -11.877 -0.217
-11.860 -9.787 -1.214
-12.739 -11.079 -0.644
-11.751 -10.747 -0.023
-12.361 -12.308 0.915
-12.568 -10.864 -0.719
-10.659 -9.498 -0.175
-13.604 -12.754 0.106
-11.070 -9.910 -0.162
-13.151 -12.160 0.009
-12.025 -10.463 -0.570
-10.704 -10.034 0.203
-12.025 -10.462 -0.570
-13.213 -11.900 -0.364
-12.604 -10.816 -0.851
-13.707 -13.130 0.408
-10.220 -9.179 -0.048
-12.602 -11.812 0.081
-12.572 -10.864 -0.724
-13.678 -13.025 0.325
-11.097 -10.238 0.141
-11.557 -10.268 -0.301
-15.903 -12.361 -2.615
-10.929 -10.172 0.212
-13.412 -13.095 0.316
-13.152 -12.160 0.009
-12.581 -11.005 -0.582
-14.001 -11.390 -1.643
-15.904 -12.360 -2.616
-13.990 -11.302 -1.700
-11.200 -10.763 0.526
-11.770 -11.028 0.260
-12.237 -10.709 -0.541
-14.578 -13.819 0.062
-13.001 -11.878 -0.151
-13.964 -11.459 -1.862
-11.744 -9.933 -0.820
-15.469 -12.366 -2.152
-11.982 -11.777 0.775
-9.898 -9.278 0.316
-13.430 -12.569 0.130
-11.737 -10.449 -0.433
-11.516 -9.541 -0.974
-10.216 -9.083 -0.139
-11.583 -9.547 -1.036
-12.296 -11.026 -0.286
-10.524 -9.216 -0.314
-11.092 -9.917 -0.179
-11.924 -10.628 -0.321
-12.869 -10.937 -0.956
-11.801 -10.652 -0.406
-11.518 -9.551 -0.966
-11.652 -9.609 -1.064
-12.569 -10.863 -0.722
-10.930 -10.169 0.206
-13.136 -10.726 -1.460
-13.381 -11.790 -0.674
-11.423 -10.179 -0.270
-11.553 -9.561 -0.996
-12.885 -11.592 -0.300
-11.036 -10.352 0.305
-13.685 -12.644 -0.100
-13.224 -12.339 -0.014
-10.614 -9.418 -0.209
-10.858 -9.795 -0.078
-11.802 -10.653 -0.407
-12.991 -11.785 -0.228
-12.536 -10.266 -1.447
-13.998 -11.389 -1.641
-11.945 -10.649 -0.294
-14.184 -13.820 0.602
-12.453 -11.665 0.211
-12.982 -11.819 -0.173
-11.640 -10.733 0.078
-11.826 -11.146 0.233
-13.582 -12.763 0.148
-13.314 -13.033 0.694
-12.901 -11.759 -0.140
-12.945 -11.860 -0.105
-13.045 -11.925 -0.145
-13.446 -12.505 0.037
-14.581 -13.819 0.058
-12.684 -11.098 -0.571
-12.595 -11.853 0.113
-13.120 -12.050 -0.068
-12.992 -11.793 -0.220
-13.120 -12.050 -0.068
-13.704 -12.737 -0.005
-12.938 -11.775 -0.195
-13.502 -11.949 -0.599
-13.019 -10.926 -1.093
-13.315 -12.869 0.520
-10.755 -9.806 0.042
-13.040 -11.863 -0.198
-13.638 -11.499 -1.472
-13.774 -11.508 -1.356
-12.851 -11.834 -0.101
-11.744 -9.933 -0.821
-13.154 -11.886 -0.284
-13.696 -11.546 -1.276
-12.310 -10.830 -0.489
-12.949 -11.839 -0.120
-11.692 -10.338 -0.353
-12.278 -10.633 -0.632
-12.420 -11.302 -0.130
-12.140 -11.158 -0.033
-13.079 -11.882 -0.216
-13.802 -12.651 -0.212
-13.334 -10.857 -1.530
-12.524 -11.010 -0.547
-14.184 -13.823 0.607
-13.151 -12.160 0.010
-13.355 -11.148 -1.261
-16.025 -14.691 -0.350
-14.493 -13.241 -0.268
-14.539 -12.963 -0.576
-13.582 -12.506 -0.069
-14.400 -13.233 -0.179
-15.399 -14.815 0.404
-14.539 -12.963 -0.577
-14.459 -12.941 -0.521
-11.622 -10.555 -0.055
-14.451 -12.933 -0.522
-14.497 -11.752 -2.013
-13.685 -11.809 -0.917
-11.618 -10.541 -0.068
-12.241 -10.931 -0.329
-13.591 -12.580 -0.013
-14.626 -13.155 -0.496
-14.396 -13.241 -0.172
-11.604 -10.380 -0.245
-16.025 -14.695 -0.346
-13.344 -12.166 -0.201
-12.451 -10.975 -0.496
-12.561 -11.773 0.139
-13.692 -12.631 -0.058
-14.585 -13.144 -0.460
-13.394 -11.197 -1.301
-13.570 -12.732 0.166
-11.699 -10.366 -0.383
-12.035 -10.702 -0.323
-12.046 -10.770 -0.265
-14.538 -12.959 -0.578
-13.758 -12.308 -0.503
-12.401 -11.317 -0.093
-14.434 -12.929 -0.509
-16.246 -13.916 -1.374
-13.331 -12.260 -0.079
-12.528 -11.109 -0.427
-12.273 -11.172 -0.109
-15.904 -14.782 -0.149
-12.064 -10.689 -0.410
-13.010 -11.635 -0.489
-16.025 -14.695 -0.345
-15.400 -14.809 0.398
-12.977 -12.076 0.082
-16.011 -14.265 -0.824
-13.610 -12.689 0.081
-12.504 -11.213 -0.411
-13.468 -12.511 0.050
-10.716 -9.643 -0.189
-11.116 -9.925 -0.229
-10.832 -9.477 -0.362
-13.204 -11.940 -0.258
-14.539 -12.964 -0.577
-11.276 -9.638 -0.697
-14.456 -11.812 -1.907
-11.113 -9.655 -0.494
-13.351 -12.032 -0.336
-11.613 -10.172 -0.431
-13.509 -12.288 -0.290
-12.545 -11.094 -0.544
-13.265 -11.766 -0.499
-12.716 -11.063 -0.684
-13.204 -11.934 -0.264
-13.230 -11.955 -0.271
-14.383 -13.229 -0.170
-13.366 -11.778 -0.584
-13.358 -11.735 -0.615
-13.462 -12.150 -0.336
-14.539 -12.966 -0.574
-12.122 -10.816 -0.335
-12.555 -11.419 -0.179
-11.613 -10.379 -0.237
-13.366 -11.780 -0.582
-13.995 -8.276 -4.885
-13.252 -11.461 -0.816
-15.395 -14.796 0.388
-14.451 -12.935 -0.521
-14.383 -13.227 -0.170
-11.541 -10.420 -0.118
-13.230 -11.943 -0.281
-11.807 -10.792 -0.121
-12.106 -10.815 -0.327
-11.156 -9.638 -0.579
-13.204 -11.943 -0.255
-12.829 -12.693 0.861
-16.025 -14.696 -0.344
-13.631 -12.148 -0.484
-15.508 -14.270 -0.244
-9.076 -8.055 -0.033
-11.149 -9.615 -0.586
-12.585 -11.768 0.113
-13.433 -11.597 -0.833
-14.066 -8.242 -4.994
-14.480 -13.227 -0.267
-13.507 -12.266 -0.294
-11.300 -9.618 -0.744
-14.619 -13.394 -0.277
-12.726 -11.059 -0.700
-10.988 -10.191 0.154
-12.483 -11.368 -0.199
-12.035 -10.701 -0.323
-12.567 -11.778 0.139
-11.962 -10.628 -0.345
-13.457 -12.194 -0.287
-13.384 -11.596 -0.782
-12.376 -11.008 -0.413
-11.833 -10.628 -0.228
-13.238 -12.181 -0.077
-14.539 -12.965 -0.575
-13.259 -11.710 -0.560
-12.877 -11.633 -0.276
-10.449 -9.527 0.072
-13.555 -12.288 -0.305
-11.695 -10.172 -0.591
-14.535 -12.942 -0.600
-15.390 -14.781 0.377
-12.700 -11.060 -0.673
-13.442 -12.200 -0.267
-13.400 -12.185 -0.284
-11.412 -9.323 -1.188
-11.398 -10.415 0.017
-11.694 -10.173 -0.589
-16.247 -13.923 -1.367
-13.496 -12.358 -0.141
-12.342 -10.967 -0.397
-13.305 -12.156 -0.169
-11.695 -10.166 -0.588
-15.750 -14.610 -0.153
-12.230 -10.990 -0.286
-13.570 -12.690 0.124
-14.067 -8.241 -4.995
-12.236 -11.268 0.031
-15.780 -14.549 -0.242
-13.464 -12.209 -0.279
-14.497 -11.763 -2.004
-14.446 -12.929 -0.522
-13.074 -11.694 -0.391
-14.458 -12.942 -0.521
-11.648 -10.400 -0.257
-13.373 -12.687 0.158
-12.518 -11.059 -0.554
-12.717 -11.455 -0.311
-12.333 -11.219 -0.114
-14.538 -13.431 -0.096
-13.570 -12.723 0.157
-15.389 -14.539 0.155
-13.971 -9.353 -3.696
-14.582 -13.439 -0.128
-10.409 -9.049 -0.383
-11.294 -9.150 -1.188
-12.171 -11.101 -0.202
-13.797 -12.155 -0.620
-11.627 -10.413 -0.222
-13.283 -11.710 -0.585
-14.381 -12.632 -0.910
-10.927 -9.393 -0.631
-15.407 -14.556 0.083
-13.311 -12.176 -0.160
-11.185 -10.278 0.104
-12.821 -11.534 -0.276
-12.513 -11.280 -0.259
-11.402 -10.410 0.009
-13.008 -11.912 -0.120
-11.778 -10.478 -0.295
-16.025 -14.695 -0.345
-15.713 -14.798 0.092
-12.292 -10.837 -0.483
-12.227 -11.254 0.007
-12.134 -10.877 -0.286
-13.266 -11.830 -0.433
-13.797 -12.155 -0.620
-14.435 -12.962 -0.477
-10.423 -9.568 0.138
-13.797 -12.155 -0.620
-11.512 -10.713 0.114
-11.595 -10.436 -0.182
-15.750 -14.771 0.013
-13.607 -12.707 0.103
-10.451 -9.525 0.068
-10.860 -9.941 0.078
-13.255 -11.773 -0.483
-12.240 -10.821 -0.455
-13.202 -11.940 -0.256
-12.443 -11.063 -0.456
-13.645 -12.682 0.042
-11.020 -10.080 -0.025
-12.035 -10.701 -0.323
-10.821 -9.657 -0.170
-13.849 -12.896 -0.056
-10.831 -9.413 -0.446
-12.821 -11.540 -0.270
-17.271 -15.956 -0.323
-11.822 -10.745 -0.212
-12.101 -10.826 -0.337
-14.106 -12.828 -0.285
-13.190 -11.877 -0.315
-13.279 -11.838 -0.438
-12.371 -11.145 -0.240
-11.565 -10.512 -0.056
-11.501 -10.379 -0.143
-11.515 -10.219 -0.379
-12.198 -11.282 0.086
-12.471 -11.400 -0.087
-15.203 -13.901 -0.353
-13.431 -11.639 -0.964
-12.273 -10.845 -0.487
-14.953 -13.936 -0.151
-11.599 -10.475 -0.133
-12.818 -11.018 -0.828
-14.381 -12.614 -0.922
-11.157 -10.592 0.244
-15.443 -14.717 0.265
-9.091 -8.338 0.220
-12.337 -11.164 -0.189
-12.248 -11.845 0.239
-19.354 -18.470 0.118
-14.938 -14.400 0.261
-13.228 -12.095 -0.149
-11.906 -10.786 -0.183
-13.040 -11.265 -0.839
-14.598 -13.333 -0.416
-11.177 -9.962 -0.226
-13.354 -11.796 -0.743
-12.255 -11.391 0.123
-13.224 -11.980 -0.266
-13.683 -11.952 -0.792
-10.804 -9.398 -0.437
-12.932 -11.700 -0.234
-15.279 -14.531 0.233
-10.516 -9.298 -0.380
-12.332 -11.214 -0.118
-11.418 -9.268 -1.185
-8.274 -7.688 0.387
-10.821 -9.477 -0.350
-12.989 -12.141 0.148
-10.451 -9.526 0.068
-12.460 -11.195 -0.279
-14.497 -12.889 -0.601
-14.429 -12.945 -0.484
-13.266 -11.804 -0.461
-10.938 -9.474 -0.468
-12.182 -11.044 -0.165
-14.437 -12.961 -0.477
-9.685 -8.675 -0.035
-12.997 -10.806 -1.227
-10.805 -9.449 -0.373
-10.554 -9.532 -0.028
-10.976 -10.086 0.094
-14.529 -13.152 -0.398
-13.165 -12.108 -0.086
-13.682 -11.955 -0.787
-12.639 -11.181 -0.461
-11.749 -10.478 -0.314
-10.809 -9.409 -0.426
-13.424 -11.924 -0.615
-14.512 -13.147 -0.385
-11.821 -10.983 0.140
-13.673 -11.770 -0.969
-14.128 -13.367 0.216
-11.611 -10.138 -0.672
-13.219 -12.276 0.047
-15.399 -14.806 0.399
-10.022 -9.138 0.038
-14.316 -11.641 -1.801
-9.755 -9.404 0.638
-10.924 -10.361 0.429
-9.346 -9.158 0.831
-11.323 -9.751 -0.643
-12.736 -10.740 -1.009
-9.625 -8.401 -0.228
-12.327 -10.978 -0.391
-10.815 -9.414 -0.425
-12.312 -10.897 -0.443
-11.019 -10.061 -0.046
-13.616 -12.631 -0.012
-10.739 -9.302 -0.498
-11.156 -10.322 0.156
-9.968 -8.067 -0.929
-14.508 -13.134 -0.392
-14.539 -12.966 -0.574
-14.539 -12.963 -0.577
-13.556 -12.315 -0.286
-16.026 -14.696 -0.345
-14.527 -13.155 -0.399
-15.603 -14.535 -0.060
-10.199 -9.195 -0.056
-9.033 -8.055 0.010
-12.109 -10.834 -0.306
-13.149 -11.954 -0.197
-12.051 -11.747 0.702
-9.174 -8.032 -0.149
-10.309 -9.654 0.015
-12.127 -10.767 -0.394
-11.824 -10.571 -0.258
-15.204 -13.859 -0.400
-10.570 -9.486 -0.089
-15.024 -13.716 -0.321
-15.036 -13.735 -0.323
-12.948 -13.818 1.868
-13.340 -11.903 -0.444
-13.344 -11.901 -0.450
-13.435 -13.676 1.235
-12.926 -11.532 -0.447
-13.984 -12.731 -0.272
-13.659 -12.997 0.348
-11.898 -11.375 0.459
-13.717 -12.994 0.286
-12.433 -11.342 -0.078
-13.427 -11.914 -0.520
-13.357 -11.903 -0.460
-13.237 -12.108 -0.157
-12.556 -11.446 -0.146
-12.556 -11.446 -0.146
-13.988 -12.699 -0.312
-13.305 -12.224 -0.117
-12.397 -11.345 -0.053
-14.290 -12.160 -1.126
-15.737 -14.269 -0.523
-14.062 -12.726 -0.370
-12.348 -11.321 -0.058
-12.950 -11.693 -0.277
-12.378 -12.476 0.964
-15.080 -13.275 -0.810
-14.734 -13.936 0.195
-12.688 -11.434 -0.314
-13.172 -11.981 -0.210
-13.209 -11.802 -0.434
-11.882 -11.410 0.460
-11.629 -10.781 0.131
-14.904 -13.773 -0.150
-12.545 -11.188 -0.493
-12.636 -11.561 -0.081
-12.958 -12.004 0.056
-15.736 -14.260 -0.532
-12.208 -11.249 0.020
-13.343 -11.897 -0.447
-12.873 -11.992 0.127
-12.446 -12.838 1.367
-16.830 -14.676 -1.186
-13.680 -13.003 0.332
-12.555 -11.212 -0.502
-14.288 -12.171 -1.112
-14.352 -12.186 -1.162
-13.808 -13.938 1.005
-13.785 -12.978 0.152
-12.873 -11.992 0.127
-14.644 -12.002 -1.652
-12.481 -12.857 1.346
-14.644 -12.000 -1.655
-16.660 -14.681 -0.993
-12.481 -12.857 1.346
-14.277 -12.177 -1.095
-13.681 -13.007 0.335
-12.089 -11.998 0.791
-14.046 -12.829 -0.238
-13.165 -11.909 -0.270
-12.866 -12.222 0.329
-15.705 -13.776 -0.977
-14.825 -13.754 -0.109
-14.554 -13.431 -0.176
-14.194 -12.105 -1.091
-13.276 -11.868 -0.418
-13.243 -12.110 -0.161
-12.672 -11.287 -0.415
-14.200 -13.055 -0.139
-15.873 -13.722 -1.236
-13.193 -11.680 -0.530
-12.556 -11.445 -0.147
-12.431 -11.102 -0.326
-11.637 -11.104 0.417
-13.702 -13.011 0.321
-14.103 -12.780 -0.428
-12.204 -12.701 1.463
-11.579 -12.558 1.879
-15.064 -13.739 -0.342
-12.523 -11.419 -0.104
-11.901 -11.243 0.326
-12.513 -11.416 -0.091
-10.755 -10.076 0.307
-15.759 -13.783 -1.025
-12.703 -11.928 0.232
-14.644 -11.998 -1.656
-12.442 -11.132 -0.331
-12.538 -11.443 -0.128
-13.457 -11.955 -0.500
-12.905 -12.313 0.396
-12.905 -12.313 0.396
-12.931 -11.540 -0.444
-12.793 -11.410 -0.430
-13.774 -12.989 0.217
-12.399 -11.731 0.321
-10.589 -11.114 1.497
-13.551 -12.387 -0.275
-10.323 -10.675 1.275
-12.004 -11.140 0.118
-10.743 -11.342 1.571
-13.589 -12.009 -0.561
-14.288 -12.173 -1.111
-14.286 -12.155 -1.130
-15.075 -13.741 -0.351
-13.717 -13.002 0.294
-10.767 -11.278 1.456
-13.071 -12.147 0.058
-11.716 -11.196 0.465
-14.695 -12.004 -1.701
-12.523 -11.417 -0.106
-14.733 -13.933 0.195
-16.658 -14.681 -0.990
-13.665 -13.042 0.377
-10.591 -11.125 1.510
-13.663 -12.844 0.135
-13.828 -13.614 0.706
-13.072 -12.169 0.074
-12.523 -11.416 -0.107
-12.362 -10.979 -0.445
-10.660 -11.288 1.564
-16.879 -14.688 -1.212
-11.487 -11.884 1.064
-12.699 -11.829 0.136
-12.081 -11.528 0.424
-11.021 -9.780 -0.274
-11.959 -11.728 0.731
-13.660 -13.005 0.354
-11.888 -11.268 0.353
-13.718 -13.005 0.295
-12.878 -12.190 0.315
-13.633 -13.020 0.391
-15.652 -14.317 -0.421
-14.938 -13.757 -0.194
-15.492 -14.353 -0.191
-13.305 -12.197 -0.135
-10.996 -10.536 0.529
-16.849 -14.452 -1.420
-10.977 -10.416 0.429
-12.619 -11.525 -0.107
-14.085 -12.825 -0.280
-11.724 -10.684 -0.090
-12.170 -11.353 0.162
-12.619 -12.576 0.852
-12.387 -11.481 0.069
-12.001 -11.134 0.112
-12.467 -11.152 -0.325
-16.669 -14.681 -1.001
-11.983 -10.925 -0.065
-13.295 -12.179 -0.150
-14.288 -12.169 -1.114
-16.661 -14.680 -0.993
-9.912 -10.699 1.774
-11.297 -10.137 -0.233
-13.078 -11.744 -0.321
-13.800 -12.379 -0.409
-15.795 -13.777 -1.060
-13.977 -12.177 -0.790
-16.879 -14.689 -1.213
-15.493 -14.380 -0.162
-11.205 -10.685 0.470
-12.779 -11.065 -0.753
-11.339 -10.129 -0.238
-14.644 -11.999 -1.656
-14.010 -13.447 0.394
-12.212 -10.753 -0.534
-12.556 -11.224 -0.511
-12.877 -13.165 1.281
-12.904 -12.311 0.395
-13.719 -13.008 0.297
-14.958 -12.553 -1.440
-13.115 -11.749 -0.354
-11.901 -11.265 0.349
-15.009 -12.775 -1.282
-13.660 -13.001 0.350
-13.272 -12.618 0.333
-11.021 -9.753 -0.321
-11.715 -11.204 0.474
-10.896 -11.227 1.277
-11.818 -11.695 0.835
-10.763 -10.078 0.302
-13.250 -12.117 -0.177