-8.124 -8.033 -0.078
-8.124 -8.033 -0.078
-8.124 -8.033 -0.078
-8.529 -8.339 -0.177
-8.529 -8.339 -0.177
-8.124 -8.033 -0.078
-8.936 -8.846 -0.076
-8.848 -8.381 -0.454
-8.114 -8.040 -0.060
-8.114 -8.040 -0.060
-9.193 -9.075 -0.104
-8.114 -8.574 0.475
-8.114 -8.574 0.475
-9.563 -8.982 -0.567
-8.114 -8.575 0.475
-9.261 -8.841 -0.406
-8.883 -8.853 -0.016
-9.502 -8.411 -1.078
-7.860 -7.858 0.012
-8.928 -8.849 -0.065
-8.821 -8.346 -0.461
-8.480 -8.314 -0.152
-8.643 -8.843 0.213
-7.859 -7.859 0.014
-7.859 -7.859 0.014
-9.355 -8.850 -0.491
-9.544 -8.993 -0.538
-8.096 -8.625 0.544
-7.859 -7.858 0.012
-7.859 -7.858 0.012
-9.355 -8.850 -0.491
-9.414 -9.016 -0.385
-7.875 -8.198 0.337
-9.458 -8.415 -1.031
-9.014 -8.910 -0.089
-8.153 -8.496 0.356
-9.147 -9.025 -0.107
-7.875 -8.198 0.337
-9.147 -9.025 -0.107
-9.181 -9.029 -0.137
-9.181 -9.029 -0.137
-8.918 -8.853 -0.051
-7.950 -8.448 0.513
-9.548 -8.977 -0.558
-9.182 -9.028 -0.139
-7.881 -8.195 0.329
-9.457 -9.006 -0.438
-7.860 -7.858 0.012
-9.828 -8.226 -1.590
-8.153 -8.496 0.356
-9.584 -8.973 -0.599
-9.640 -9.018 -0.608
-7.935 -8.206 0.285
-7.862 -7.858 0.010
-8.823 -8.345 -0.465
-8.761 -8.386 -0.362
-8.482 -8.313 -0.155
-8.097 -8.625 0.542
-9.457 -9.006 -0.439
-9.358 -8.849 -0.494
-9.585 -8.983 -0.588
-9.584 -8.973 -0.599
-9.016 -8.911 -0.091
-9.506 -8.411 -1.082
-8.097 -8.624 0.541
-9.379 -8.990 -0.375
-7.420 -8.444 1.037
-7.420 -8.444 1.037
-9.050 -8.576 -0.460
-9.358 -8.849 -0.494
-8.354 -9.085 0.744
-7.860 -7.858 0.011
-8.364 -9.076 0.725
-7.440 -8.119 0.693
-9.585 -8.973 -0.599
-7.583 -8.535 0.966
-8.931 -8.849 -0.068
-8.931 -8.849 -0.068
-9.358 -8.849 -0.494
-9.148 -9.024 -0.109
-9.585 -8.984 -0.588
-9.585 -8.984 -0.588
-9.367 -8.922 -0.430
-8.822 -8.346 -0.462
-8.822 -8.346 -0.462
-8.174 -8.225 0.065
-9.148 -9.025 -0.108
-9.189 -9.025 -0.150
-9.440 -9.011 -0.414
-9.829 -8.226 -1.591
-8.822 -8.345 -0.463
-8.822 -8.345 -0.463
-8.822 -8.345 -0.463
-9.585 -8.983 -0.588
-7.421 -8.121 0.714
-8.822 -8.345 -0.463
-8.513 -9.112 0.613
-9.458 -9.006 -0.440
-8.822 -8.345 -0.463
-8.151 -8.493 0.355
-8.443 -8.316 -0.112
-9.462 -8.414 -1.035
-9.462 -8.414 -1.035
-9.148 -9.024 -0.109
-8.369 -8.931 0.576
-8.369 -8.931 0.576
-9.457 -9.006 -0.438
-9.416 -8.987 -0.415
-9.358 -8.849 -0.494
-9.256 -8.118 -1.127
-7.592 -8.101 0.523
-9.182 -9.028 -0.139
-6.676 -7.979 1.318
-9.701 -9.019 -0.669
-7.416 -8.124 0.722
-9.182 -9.028 -0.139
-9.415 -8.987 -0.415
-7.841 -7.789 -0.039
-5.998 -6.032 0.049
-9.148 -9.024 -0.108
-9.367 -8.922 -0.430
-8.643 -8.851 0.223
-9.358 -8.849 -0.494
-9.358 -8.850 -0.494
-9.378 -8.991 -0.374
-8.923 -8.852 -0.058
-8.100 -8.629 0.544
-9.016 -8.911 -0.091
-9.016 -8.911 -0.091
-9.191 -9.027 -0.150
-7.932 -8.206 0.289
-8.917 -8.854 -0.049
-8.100 -8.629 0.544
-8.672 -8.847 0.189
-9.584 -8.973 -0.598
-9.050 -8.576 -0.460
-9.182 -9.028 -0.139
-9.829 -8.226 -1.590
-9.189 -9.025 -0.150
-8.920 -8.853 -0.053
-7.880 -8.195 0.330
-9.183 -9.024 -0.144
-9.588 -8.985 -0.590
-9.829 -8.226 -1.590
-8.632 -9.111 0.493
-7.860 -7.858 0.011
-9.148 -9.025 -0.108
-7.416 -8.124 0.722
-9.256 -8.118 -1.127
-9.830 -8.225 -1.592
-7.838 -7.886 0.062
-9.462 -8.414 -1.034
-7.838 -7.885 0.061
-8.414 -8.359 -0.042
-9.830 -8.225 -1.592
-9.050 -8.576 -0.460
-9.459 -9.007 -0.440
-9.459 -9.007 -0.439
-9.425 -8.191 -1.222
-7.835 -7.888 0.067
-8.806 -9.088 0.297
-9.416 -8.987 -0.416
-6.402 -5.730 -0.658
-8.802 -9.089 0.302
-8.802 -9.089 0.302
-9.584 -8.973 -0.598
-9.588 -8.985 -0.590
-8.925 -8.851 -0.060
-7.598 -8.535 0.952
-8.097 -8.625 0.542
-8.973 -9.073 0.115
-9.424 -8.080 -1.330
-7.843 -7.790 -0.040
-8.162 -8.221 0.074
-9.358 -8.849 -0.494
-9.462 -9.007 -0.440
-7.933 -8.206 0.288
-9.586 -8.984 -0.589
-9.462 -8.414 -1.034
-9.424 -8.080 -1.330
-7.433 -8.123 0.704
-9.050 -8.576 -0.460
-9.379 -8.920 -0.445
-9.424 -8.080 -1.330
-8.173 -8.225 0.067
-9.827 -8.226 -1.588
-8.130 -8.228 0.113
-9.459 -9.007 -0.440
-9.148 -9.024 -0.109
-9.460 -9.007 -0.441
-9.460 -9.007 -0.441
-9.829 -8.226 -1.590
-7.860 -7.858 0.012
-7.423 -8.121 0.712
-9.462 -8.414 -1.034
-8.948 -8.133 -0.800
-8.382 -8.369 0.001
-8.948 -8.133 -0.800
-9.256 -8.118 -1.128
-7.839 -7.885 0.061
-9.830 -8.225 -1.592
-7.861 -7.858 0.010
-9.640 -9.019 -0.608
-7.723 -8.653 0.944
-9.358 -8.849 -0.494
-9.358 -8.849 -0.494
-9.462 -9.007 -0.440
-9.829 -8.226 -1.591
-9.452 -8.415 -1.025
-8.175 -8.225 0.065
-7.933 -8.206 0.287
-9.256 -8.118 -1.128
-8.632 -9.108 0.490
-8.655 -8.843 0.202
-9.060 -8.920 -0.126
-8.661 -8.851 0.204
-9.585 -8.984 -0.588
-8.948 -8.133 -0.800
-9.415 -8.988 -0.414
-9.313 -8.843 -0.457
-8.949 -8.134 -0.800
-9.440 -9.011 -0.414
-8.739 -9.013 0.289
-9.377 -8.991 -0.372
-9.452 -8.415 -1.025
-7.861 -7.858 0.011
-9.148 -9.025 -0.108
-8.381 -8.369 0.002
-9.415 -8.987 -0.414
-7.841 -7.789 -0.039
-9.543 -8.993 -0.538
-8.117 -8.039 -0.065
-8.117 -8.039 -0.065
-8.117 -8.039 -0.065
-7.549 -8.525 0.991
-8.841 -9.045 0.218
-9.562 -8.982 -0.566
-8.038 -8.229 0.206
-9.562 -8.982 -0.566
-8.113 -8.040 -0.059
-8.279 -8.520 0.254
-8.079 -8.044 -0.022
-8.908 -8.175 -0.719
-9.230 -9.078 -0.137
-7.682 -8.247 0.579
-8.072 -8.047 -0.012
-8.918 -8.186 -0.717
-9.541 -8.993 -0.535
-7.198 -6.165 -1.020
-9.563 -8.982 -0.567
-8.883 -8.853 -0.016
-5.852 -5.920 0.082
-9.540 -8.992 -0.534
-8.221 -8.529 0.321
-9.237 -9.075 -0.148
-8.835 -8.385 -0.437
-9.563 -8.982 -0.567
-9.194 -9.075 -0.104
-9.574 -9.137 -0.422
-9.326 -8.919 -0.393
-7.873 -8.198 0.340
-7.704 -8.674 0.984
-8.360 -8.376 0.029
-8.821 -8.346 -0.462
-7.859 -7.858 0.012
-9.098 -8.059 -1.025
-9.181 -9.029 -0.137
-9.355 -9.000 -0.341
-9.456 -9.012 -0.431
-7.417 -8.124 0.721
-9.355 -8.849 -0.490
-9.181 -9.029 -0.137
-7.434 -8.122 0.702
-7.836 -7.888 0.066
-9.450 -8.415 -1.022
-9.422 -8.080 -1.327
-9.422 -8.080 -1.327
-9.481 -8.189 -1.279
-8.399 -8.134 -0.251
-8.947 -8.134 -0.798
-7.858 -7.860 0.016
-8.097 -8.626 0.543
-9.147 -9.025 -0.108
-9.366 -8.845 -0.506
-7.542 -8.534 1.007
-9.547 -8.993 -0.542
-9.449 -8.415 -1.021
-6.402 -5.729 -0.659
-9.549 -8.991 -0.545
-7.860 -7.859 0.013
-7.837 -7.887 0.064
-9.181 -9.025 -0.142
-8.972 -9.073 0.116
-8.918 -8.853 -0.051
-7.859 -7.860 0.015
-8.159 -8.221 0.076
-9.181 -9.025 -0.142
-7.835 -7.888 0.067
-8.007 -8.876 0.883
-7.856 -8.188 0.347
-9.419 -9.014 -0.392
-7.440 -8.121 0.695
-7.859 -7.859 0.014
-9.909 -8.234 -1.662
-7.838 -7.887 0.063
-7.857 -8.188 0.345
-9.181 -9.024 -0.142
-9.483 -8.189 -1.282
-9.549 -8.989 -0.547
-8.822 -8.345 -0.463
-9.484 -8.188 -1.283
-7.838 -8.243 0.419
-9.325 -8.919 -0.392
-7.706 -8.676 0.984
-9.355 -8.849 -0.491
-9.181 -9.025 -0.142
-8.098 -8.628 0.545
-8.972 -9.073 0.116
-8.381 -8.369 0.001
-8.946 -8.134 -0.798
-8.382 -8.369 0.001
-8.382 -8.369 0.001
-7.736 -8.554 0.832
-9.049 -8.576 -0.459
-7.860 -7.860 0.014
-7.860 -7.860 0.014
-7.862 -8.194 0.347
-8.930 -8.849 -0.068
-9.461 -9.005 -0.444
-9.461 -9.005 -0.444
-9.382 -8.989 -0.379
-9.552 -8.984 -0.554
-9.423 -8.080 -1.329
-8.736 -8.939 0.218
-7.835 -7.889 0.067
-8.948 -8.134 -0.799
-9.094 -8.061 -1.018
-9.588 -8.983 -0.592
-9.587 -8.972 -0.602
-9.418 -8.986 -0.419
-9.589 -8.982 -0.594
-9.587 -8.972 -0.602
-7.858 -7.860 0.016
-9.482 -8.189 -1.280
-9.182 -9.025 -0.142
-9.583 -8.961 -0.608
-7.880 -8.194 0.329
-8.368 -8.373 0.018
-9.418 -8.986 -0.419
-9.182 -9.025 -0.142
-8.162 -8.220 0.073
-8.799 -9.090 0.305
-8.822 -8.345 -0.463
-8.617 -9.395 0.787
-6.402 -5.729 -0.659
-8.442 -8.317 -0.111
-8.827 -8.345 -0.468
-9.060 -8.920 -0.125
-9.588 -8.991 -0.584
-9.423 -8.080 -1.329
-8.821 -8.346 -0.461
-8.927 -8.851 -0.062
-9.482 -8.190 -1.279
-6.402 -5.729 -0.658
-8.441 -8.318 -0.108
-9.462 -9.006 -0.444
-9.424 -8.190 -1.221
-8.100 -8.630 0.544
-9.482 -8.190 -1.279
-7.839 -8.244 0.420
-6.402 -5.729 -0.658
-8.972 -9.073 0.116
-7.859 -7.859 0.014
-9.418 -8.986 -0.419
-9.462 -8.414 -1.035
-9.148 -9.025 -0.109
-6.402 -5.729 -0.658
-6.402 -5.729 -0.658
-8.822 -8.346 -0.463
-9.462 -9.005 -0.444
-8.740 -9.012 0.286
-8.948 -8.134 -0.799
-7.859 -7.860 0.015
-8.973 -9.073 0.115
-9.460 -9.007 -0.438
-9.417 -8.987 -0.416
-9.462 -9.006 -0.443
-9.453 -8.988 -0.451
-9.484 -8.189 -1.282
-8.442 -8.318 -0.110
-9.484 -8.189 -1.282
-7.824 -8.241 0.432
-8.823 -8.345 -0.464
-9.418 -8.986 -0.418
-6.402 -5.729 -0.659
-9.462 -9.005 -0.444
-9.453 -8.415 -1.025
-9.828 -8.226 -1.590
-9.392 -9.008 -0.370
-9.462 -9.006 -0.443
-8.947 -8.134 -0.799
-6.676 -7.979 1.318
-7.859 -7.860 0.014
-8.947 -8.134 -0.799
-9.827 -8.226 -1.588
-9.827 -8.226 -1.588
-8.821 -8.346 -0.462
-9.621 -8.974 -0.634
-7.836 -7.888 0.065
-9.357 -8.849 -0.493
-5.998 -6.032 0.049
-8.923 -8.851 -0.058
-7.891 -8.243 0.366
-9.182 -9.025 -0.143
-7.835 -7.889 0.067
-8.099 -8.628 0.544
-9.462 -9.006 -0.443
-7.835 -7.889 0.068
-9.148 -9.025 -0.108
-9.369 -8.845 -0.509
-9.392 -9.008 -0.370
-5.982 -5.630 -0.340
-8.672 -8.845 0.186
-9.424 -8.191 -1.221
-9.392 -9.008 -0.370
-8.947 -8.134 -0.799
-7.835 -7.888 0.067
-6.402 -5.729 -0.658
-7.607 -8.533 0.941
-9.423 -8.080 -1.329
-9.357 -8.849 -0.493
-9.453 -8.415 -1.025
-6.402 -5.729 -0.659
-8.163 -8.220 0.072
-9.182 -9.025 -0.143
-8.105 -9.086 0.995
-7.537 -8.532 1.010
-9.408 -8.277 -1.118
-9.425 -8.189 -1.223
-7.824 -8.242 0.432
-9.423 -8.080 -1.329
-9.423 -8.080 -1.329
-9.454 -8.988 -0.453
-9.439 -9.011 -0.413
-9.417 -8.987 -0.416
-9.423 -8.080 -1.329
-9.424 -8.190 -1.220
-8.821 -8.346 -0.461
-5.982 -5.630 -0.340
-7.595 -8.521 0.941
-9.439 -9.011 -0.413
-8.823 -8.345 -0.464
-9.060 -8.920 -0.125
-7.428 -8.124 0.711
-9.484 -8.189 -1.283
-8.897 -8.085 -0.797
-7.858 -7.860 0.016
-7.727 -8.655 0.942
-9.462 -9.005 -0.444
-7.422 -8.121 0.713
-7.177 -6.167 -0.997
-8.853 -8.380 -0.460
-8.957 -8.847 -0.096
-7.164 -6.171 -0.980
-7.683 -8.247 0.579
-7.200 -6.164 -1.022
-9.280 -8.841 -0.425
-8.961 -8.851 -0.097
-7.663 -8.246 0.598
-6.503 -6.138 -0.351
-5.852 -5.920 0.082
-7.454 -8.129 0.690
-9.434 -8.997 -0.423
-9.261 -8.841 -0.406
-8.814 -9.053 0.254
-9.424 -9.014 -0.397
-6.838 -5.856 -0.968
-6.838 -5.856 -0.968
-8.647 -8.315 -0.318
-7.871 -7.857 -0.000
-9.058 -8.920 -0.124
-8.439 -8.319 -0.106
-6.402 -5.729 -0.659
-7.835 -7.889 0.068
-9.483 -8.189 -1.281
-8.946 -8.134 -0.798
-8.381 -8.369 0.001
-8.384 -8.370 -0.001
-9.482 -8.189 -1.280
-5.999 -6.032 0.048
-7.836 -7.888 0.066
-9.424 -8.189 -1.222
-6.218 -5.719 -0.485
-8.896 -8.085 -0.797
-7.835 -7.888 0.067
-6.460 -6.043 -0.403
-6.498 -6.040 -0.443
-9.422 -8.190 -1.219
-8.439 -8.319 -0.106
-7.858 -7.860 0.016
-8.618 -9.394 0.786
-8.441 -8.318 -0.109
-7.858 -7.860 0.015
-8.441 -8.318 -0.109
-9.418 -8.986 -0.418
-9.182 -9.025 -0.142
-6.402 -5.729 -0.659
-7.859 -7.860 0.015
-9.827 -8.226 -1.588
-7.842 -8.243 0.416
-7.416 -8.123 0.722
-5.998 -6.032 0.049
-9.182 -9.025 -0.142
-8.480 -8.314 -0.152
-7.840 -8.244 0.419
-9.462 -9.006 -0.443
-9.423 -8.080 -1.329
-9.423 -8.080 -1.329
-8.821 -8.346 -0.461
-9.425 -8.189 -1.223
-8.491 -9.081 0.606
-9.589 -8.987 -0.590
-7.697 -7.988 0.305
-8.441 -8.318 -0.109
-6.499 -6.040 -0.444
-9.425 -8.189 -1.223
-8.441 -8.318 -0.109
-9.182 -9.025 -0.142
-6.402 -5.729 -0.658
-7.725 -8.665 0.954
-6.402 -5.729 -0.658
-6.402 -5.729 -0.658
-6.402 -5.729 -0.658
-8.948 -8.134 -0.799
-7.555 -8.530 0.990
-9.465 -9.004 -0.448
-9.465 -9.004 -0.448
-9.454 -8.988 -0.453
-9.454 -8.988 -0.453
-7.858 -7.860 0.016
-8.479 -8.314 -0.151
-8.441 -8.318 -0.109
-9.589 -8.984 -0.592
-7.836 -7.888 0.066
-8.400 -8.133 -0.252
-7.835 -7.888 0.067
-8.158 -8.632 0.489
-7.835 -7.888 0.067
-8.134 -8.676 0.557
-5.998 -6.032 0.049
-7.835 -7.888 0.067
-8.821 -8.346 -0.462
-8.403 -9.106 0.718
-9.483 -8.189 -1.281
-7.871 -7.856 -0.001
-7.875 -7.789 -0.074
-9.392 -9.008 -0.369
-8.430 -9.112 0.697
-6.402 -5.729 -0.658
-9.462 -9.006 -0.443
-6.402 -5.729 -0.658
-9.425 -8.190 -1.222
-7.836 -7.888 0.066
-9.392 -9.008 -0.369
-9.498 -9.003 -0.482
-7.860 -7.860 0.014
-7.837 -7.888 0.065
-8.127 -9.077 0.965
-7.860 -7.860 0.014
-7.837 -7.888 0.065
-8.442 -8.318 -0.110
-6.402 -5.729 -0.659
-6.458 -5.731 -0.713
-8.616 -9.395 0.787
-8.398 -8.133 -0.251
-9.392 -9.008 -0.370
-9.498 -9.003 -0.482
-6.402 -5.729 -0.658
-8.397 -8.365 -0.018
-7.572 -8.991 1.433
-8.441 -8.319 -0.108
-9.425 -8.190 -1.221
-7.835 -7.889 0.067
-9.408 -8.277 -1.119
-6.402 -5.729 -0.659
-9.423 -8.080 -1.329
-7.858 -7.860 0.016
-7.836 -7.888 0.065
-5.982 -5.630 -0.340
-9.499 -9.003 -0.483
-7.836 -7.888 0.066
-6.461 -6.043 -0.403
-8.128 -9.081 0.967
-9.499 -9.003 -0.483
-7.836 -7.888 0.066
-7.836 -7.888 0.066
-7.555 -8.530 0.990
-9.406 -8.278 -1.116
-7.567 -8.532 0.979
-7.836 -7.888 0.065
-6.218 -5.719 -0.485
-6.218 -5.719 -0.485
-9.454 -8.988 -0.453
-8.441 -8.318 -0.109
-6.402 -5.729 -0.658
-7.435 -8.120 0.699
-6.218 -5.719 -0.485
-7.858 -7.860 0.016
-9.455 -8.988 -0.453
-6.402 -5.729 -0.658
-6.461 -6.043 -0.403
-9.341 -8.283 -1.045
-7.558 -8.194 0.651
-7.836 -7.888 0.066
-6.402 -5.729 -0.658
-5.982 -5.630 -0.340
-6.499 -6.040 -0.444
-7.871 -7.857 -0.000
-8.442 -8.318 -0.110
-7.836 -7.888 0.065
-9.342 -8.283 -1.046
-6.461 -6.043 -0.404
-7.698 -7.989 0.305
-9.425 -8.189 -1.223
-9.342 -8.283 -1.046
-6.402 -5.729 -0.659
-6.402 -5.729 -0.659
-9.499 -9.003 -0.483
-7.698 -7.988 0.305
-6.461 -6.043 -0.404
-6.461 -6.043 -0.404
-8.442 -8.318 -0.110
-9.342 -8.283 -1.046
-7.837 -7.888 0.065
-9.425 -8.189 -1.223
-7.836 -7.888 0.065
-7.837 -7.888 0.065
-5.982 -5.630 -0.340
-8.897 -8.085 -0.797
-6.402 -5.729 -0.658
-8.440 -8.319 -0.107
-6.461 -6.043 -0.403
-7.835 -7.888 0.068
-9.462 -9.005 -0.444
-9.499 -9.003 -0.483
-7.925 -8.456 0.543
-9.423 -8.191 -1.220
-5.982 -5.630 -0.339
-7.598 -8.520 0.937
-5.982 -5.630 -0.339
-5.982 -5.630 -0.339
-7.835 -7.889 0.068
-9.499 -9.003 -0.483
-9.482 -8.189 -1.280
-9.448 -8.989 -0.446
-8.835 -9.054 0.234
-8.159 -8.633 0.489
-6.402 -5.729 -0.658
-9.424 -8.191 -1.220
-6.402 -5.729 -0.658
-9.498 -9.003 -0.483
-9.341 -8.285 -1.043
-9.424 -8.191 -1.220
-7.835 -7.889 0.068
-7.835 -7.889 0.068
-8.399 -8.134 -0.251
-6.270 -6.356 0.098
-6.270 -6.356 0.098
-6.314 -6.039 -0.260
-9.463 -9.005 -0.445
-7.834 -7.889 0.068
-9.381 -8.989 -0.379
-9.463 -9.009 -0.441
-9.381 -8.989 -0.379
-7.834 -7.889 0.068
-8.440 -8.319 -0.106
-7.834 -7.889 0.068
-9.482 -8.190 -1.280
-9.424 -8.189 -1.222
-7.836 -7.888 0.066
-8.088 -8.683 0.610
-7.554 -8.530 0.991
-9.419 -8.986 -0.419
-7.696 -7.990 0.308
-7.696 -7.990 0.308
-8.440 -8.319 -0.106
-7.712 -7.989 0.292
-5.998 -6.032 0.049
-9.341 -8.284 -1.044
-7.839 -8.245 0.420
-6.541 -6.135 -0.391
-9.123 -9.141 0.032
-8.084 -8.039 -0.032
-7.702 -8.238 0.550
-9.459 -9.010 -0.436
-5.851 -5.919 0.081
-7.203 -6.164 -1.026
-7.569 -8.517 0.963
-8.576 -9.069 0.508
-9.440 -8.412 -1.016
-7.848 -7.880 0.046
-7.546 -8.526 0.995
-6.499 -6.040 -0.444
-7.848 -7.880 0.046
-6.459 -5.730 -0.715
-7.709 -7.980 0.285
-7.848 -7.880 0.046
-6.403 -5.729 -0.660
-7.848 -7.880 0.046
-6.313 -6.039 -0.259
-9.462 -9.010 -0.440
-9.437 -8.995 -0.428
-9.462 -9.010 -0.440
-5.981 -5.628 -0.340
-9.462 -9.010 -0.440
-9.462 -9.010 -0.440
-9.436 -8.180 -1.244
-9.436 -8.180 -1.244
-9.436 -8.180 -1.244
-7.848 -7.880 0.046
-9.363 -8.997 -0.352
-9.354 -8.274 -1.068
-9.463 -9.010 -0.440
-8.515 -8.306 -0.195
-8.453 -8.309 -0.129
-6.403 -5.729 -0.659
-7.893 -7.847 -0.032
-9.462 -9.010 -0.440
-7.850 -7.879 0.043
-7.459 -8.111 0.666
-9.462 -9.010 -0.440
-6.459 -5.730 -0.715
-7.459 -8.111 0.666
-9.363 -8.997 -0.352
-9.462 -9.010 -0.440
-5.945 -5.945 0.015
-6.403 -5.729 -0.659
-9.354 -8.274 -1.067
-6.278 -6.056 -0.208
-8.630 -9.042 0.428
-5.981 -5.629 -0.339
-9.354 -8.273 -1.069
-6.275 -6.344 0.082
-6.268 -5.885 -0.371
-6.403 -5.729 -0.659
-9.503 -8.179 -1.311
-7.527 -8.173 0.660
-7.849 -7.879 0.044
-7.849 -7.879 0.044
-7.849 -7.879 0.044
-8.515 -8.306 -0.195
-6.219 -5.719 -0.485
-7.711 -7.979 0.283
-9.446 -8.994 -0.438
-7.849 -7.879 0.044
-8.068 -8.653 0.599
-6.461 -6.043 -0.403
-6.498 -6.040 -0.443
-7.848 -7.880 0.046
-8.451 -8.311 -0.126
-8.458 -9.081 0.638
-9.463 -9.009 -0.441
-5.981 -5.629 -0.339
-9.463 -9.009 -0.441
-9.463 -9.009 -0.441
-7.849 -7.880 0.045
-9.463 -9.009 -0.441
-9.438 -8.994 -0.430
-7.849 -7.880 0.045
-7.849 -7.880 0.045
-7.849 -7.880 0.045
-7.849 -7.880 0.045
-9.436 -8.179 -1.243
-9.354 -8.273 -1.068
-9.436 -8.179 -1.243
-8.452 -8.310 -0.128
-8.652 -8.838 0.200
-7.865 -7.788 -0.065
-7.865 -7.788 -0.065
-5.500 -6.184 0.699
-5.277 -5.752 0.488
-6.132 -6.944 0.825
-4.784 -4.865 0.093
-5.500 -6.184 0.699
-5.136 -5.688 0.565
-5.570 -6.889 1.333
-6.132 -6.944 0.825
-5.570 -6.889 1.333
-5.500 -6.184 0.699
-5.500 -6.184 0.699
-5.136 -5.688 0.565
-5.500 -6.184 0.699
-5.136 -5.688 0.565
-5.500 -6.184 0.699
-5.136 -5.688 0.565
-5.136 -5.688 0.565
-5.500 -6.184 0.699
-5.570 -6.889 1.333
-5.500 -6.184 0.699
-5.093 -5.521 0.441
-6.132 -6.944 0.825
-5.277 -5.752 0.488
-5.500 -6.184 0.699
-6.132 -6.944 0.825
-6.132 -6.944 0.825
-5.500 -6.184 0.699
-5.570 -6.889 1.333
-5.163 -5.677 0.526
-6.132 -6.944 0.825
-5.500 -6.184 0.699
-5.163 -5.677 0.526
-5.500 -6.184 0.699
-5.500 -6.184 0.699
-4.896 -5.790 0.908
-6.132 -6.944 0.825
-5.137 -5.687 0.564
-5.502 -6.183 0.695
-5.502 -6.183 0.695
-5.502 -6.183 0.695
-4.787 -4.864 0.090
-5.502 -6.183 0.695
-5.502 -6.183 0.695
-5.502 -6.183 0.695
-4.787 -4.864 0.090
-5.164 -5.676 0.525
-5.549 -6.181 0.646
-5.164 -5.675 0.524
-5.502 -6.183 0.695
-5.502 -6.183 0.695
-4.787 -4.864 0.090
-5.502 -6.183 0.695
-5.502 -6.183 0.695
-4.378 -5.102 0.739
-5.502 -6.183 0.695
-6.132 -6.944 0.825
-5.502 -6.183 0.695
-5.164 -5.676 0.525
-5.589 -6.879 1.304
-5.549 -6.181 0.646
-5.502 -6.183 0.695
-5.502 -6.183 0.695
-5.469 -6.446 0.991
-5.164 -5.676 0.525
-5.502 -6.183 0.695
-5.570 -6.889 1.333
-5.570 -6.889 1.333
-5.502 -6.183 0.695
-5.502 -6.183 0.695
-4.787 -4.864 0.090
-5.137 -5.687 0.564
-5.570 -6.889 1.333
-5.400 -6.020 0.633
-5.408 -6.100 0.706
-5.570 -6.889 1.333
-5.137 -5.687 0.564
-5.502 -6.183 0.695
-6.133 -6.945 0.826
-5.818 -5.931 0.127
-5.502 -6.183 0.695
-4.787 -4.864 0.090
-5.502 -6.183 0.695
-5.502 -6.183 0.695
-6.132 -6.944 0.825
-5.502 -6.183 0.695
-5.502 -6.183 0.695
-9.022 -9.020 0.013
-6.031 -5.940 -0.077
-4.681 -6.576 1.905
-5.497 -6.185 0.702
-5.589 -6.880 1.305
-9.021 -9.025 0.018
-5.571 -6.889 1.332
-5.519 -6.234 0.729
-5.395 -6.101 0.721
-6.133 -6.944 0.825
-5.615 -5.799 0.198
-6.031 -5.940 -0.077
-5.799 -5.932 0.147
-5.134 -5.689 0.569
-5.570 -6.889 1.333
-5.570 -6.889 1.333
-5.570 -6.889 1.333
-6.055 -6.314 0.272
-4.784 -4.864 0.093
-5.615 -5.799 0.198
-9.022 -9.020 0.013
-5.350 -6.263 0.927
-6.133 -6.944 0.824
-5.571 -6.889 1.332
-5.616 -5.799 0.198
-5.589 -6.879 1.304
-5.571 -6.889 1.332
-5.500 -6.183 0.697
-5.500 -6.183 0.697
-5.500 -6.183 0.697
-5.500 -6.183 0.697
-5.571 -6.888 1.332
-6.056 -6.314 0.271
-5.307 -6.098 0.806
-5.633 -5.796 0.178
-5.397 -6.101 0.719
-5.307 -6.098 0.806
-5.571 -6.889 1.332
-5.498 -6.273 0.789
-5.351 -6.263 0.926
-5.397 -6.101 0.719
-5.397 -6.101 0.719
-5.616 -5.799 0.198
-5.571 -6.888 1.332
-6.134 -6.945 0.825
-5.397 -6.101 0.719
-4.787 -4.864 0.089
-5.350 -6.263 0.927
-5.571 -6.889 1.332
-5.571 -6.888 1.332
-6.056 -6.314 0.271
-9.022 -9.020 0.012
-5.307 -6.098 0.806
-5.500 -6.183 0.697
-5.427 -5.913 0.500
-5.121 -6.399 1.292
-5.121 -6.399 1.292
-5.121 -6.399 1.292
-8.909 -9.055 0.160
-6.337 -5.897 -0.426
-5.120 -6.399 1.292
-6.119 -6.943 0.838
-6.350 -6.017 -0.319
-6.516 -6.387 -0.115
-7.175 -6.167 -0.995
-5.120 -6.398 1.292
-4.164 -6.343 2.194
-6.515 -6.388 -0.114
-4.852 -5.050 0.212
-6.119 -6.943 0.838
-6.121 -6.938 0.831
-5.534 -6.917 1.397
-5.751 -6.301 0.563
-4.852 -5.050 0.212
-6.515 -6.387 -0.115
-6.292 -6.924 0.647
-6.337 -5.897 -0.426
-6.515 -6.387 -0.115
-5.417 -5.901 0.497
-5.120 -6.399 1.293
-5.928 -6.162 0.248
-8.909 -9.055 0.160
-6.119 -6.943 0.838
-5.563 -6.130 0.582
-5.534 -6.917 1.397
-6.516 -6.387 -0.115
-6.516 -6.387 -0.115
-5.120 -6.398 1.292
-5.553 -6.909 1.369
-6.516 -6.387 -0.115
-5.630 -6.837 1.221
-5.120 -6.398 1.292
-6.121 -6.939 0.832
-4.736 -5.760 1.037
-5.563 -6.130 0.582
-5.427 -5.911 0.499
-5.446 -5.888 0.456
-5.446 -5.888 0.456
-8.909 -9.055 0.160
-5.446 -5.888 0.455
-7.175 -6.167 -0.995
-6.359 -5.894 -0.451
-6.359 -5.894 -0.451
-5.902 -6.309 0.421
-6.040 -6.172 0.146
-6.337 -5.897 -0.426
-4.990 -6.348 1.372
-5.535 -6.917 1.397
-5.992 -5.051 -0.926
-8.909 -9.055 0.160
-5.446 -5.909 0.477
-9.387 -8.405 -0.969
-5.567 -6.890 1.337
-5.017 -5.679 0.674
-5.010 -5.685 0.687
-5.203 -6.140 0.952
-5.525 -6.172 0.662
-5.567 -6.890 1.337
-5.563 -6.231 0.682
-4.704 -5.528 0.838
-5.546 -6.181 0.650
-6.072 -6.311 0.252
-6.134 -6.944 0.824
-7.985 -8.109 0.138
-5.321 -6.097 0.791
-4.784 -4.865 0.094
-5.499 -6.184 0.699
-5.823 -5.935 0.127
-6.134 -6.944 0.824
-6.466 -6.041 -0.410
-5.163 -5.676 0.526
-5.499 -6.184 0.699
-5.320 -6.097 0.792
-7.709 -7.982 0.287
-5.319 -6.097 0.793
-5.359 -6.262 0.917
-6.466 -6.041 -0.410
-6.466 -6.041 -0.410
-5.092 -5.912 0.834
-5.336 -6.168 0.846
-8.037 -8.648 0.625
-7.707 -7.984 0.291
-6.027 -6.312 0.298
-5.318 -6.097 0.794
-7.709 -7.982 0.287
-8.462 -9.074 0.627
-7.724 -7.982 0.272
-4.945 -5.770 0.839
-5.563 -6.231 0.682
-5.546 -6.181 0.650
-6.050 -5.943 -0.093
-7.710 -7.982 0.286
-6.466 -6.041 -0.410
-5.163 -5.676 0.526
-6.072 -6.311 0.252
-6.028 -6.312 0.298
-8.458 -9.075 0.632
-5.319 -6.097 0.793
-7.724 -7.982 0.272
-7.724 -7.982 0.272
-7.709 -7.982 0.287
-8.462 -9.074 0.626
-5.496 -6.185 0.703
-4.370 -4.599 0.244
-7.709 -7.982 0.287
-6.027 -6.312 0.298
-5.162 -5.677 0.527
-6.027 -6.312 0.298
-5.496 -6.185 0.703
-5.821 -5.932 0.125
-7.988 -8.108 0.134
-5.042 -5.681 0.651
-6.241 -6.322 0.094
-8.458 -9.075 0.632
-6.028 -6.312 0.297
-8.458 -9.075 0.632
-8.459 -9.075 0.630
-5.821 -5.931 0.125
-7.710 -7.984 0.288
-5.563 -6.231 0.682
-5.564 -6.817 1.267
-5.823 -5.935 0.126
-6.073 -6.310 0.252
-4.084 -6.339 2.269
-8.386 -8.112 -0.260
-7.707 -7.983 0.290
-5.583 -6.149 0.580
-7.727 -7.981 0.269
-5.543 -6.183 0.655
-4.151 -6.328 2.192
-5.543 -6.183 0.655
-5.822 -5.925 0.118
-5.619 -5.793 0.188
-5.822 -5.935 0.127
-5.336 -6.168 0.846
-6.028 -6.312 0.298
-5.894 -6.302 0.423
-5.820 -5.932 0.126
-5.589 -6.880 1.304
-8.463 -9.074 0.626
-6.072 -6.311 0.252
-6.028 -6.312 0.297
-5.822 -5.935 0.127
-8.627 -9.042 0.431
-5.590 -6.879 1.303
-6.449 -6.053 -0.382
-7.336 -8.391 1.069
-6.028 -6.312 0.298
-5.499 -6.183 0.699
-6.134 -6.944 0.824
-5.571 -6.889 1.333
-4.768 -4.990 0.236
-5.820 -5.932 0.126
-5.822 -5.935 0.127
-5.320 -6.097 0.792
-5.590 -6.879 1.304
-5.822 -5.935 0.127
-5.545 -6.182 0.651
-7.724 -7.982 0.272
-7.709 -7.982 0.287
-5.582 -6.794 1.226
-5.543 -6.183 0.655
-7.709 -7.982 0.287
-7.867 -8.139 0.286
-6.029 -6.312 0.297
-5.821 -5.935 0.128
-6.072 -6.311 0.252
-7.708 -7.982 0.288
-7.708 -7.982 0.288
-5.570 -6.889 1.333
-6.072 -6.311 0.252
-7.869 -8.139 0.284
-7.708 -7.982 0.289
-6.028 -6.312 0.297
-5.337 -6.168 0.845
-6.134 -6.944 0.824
-6.313 -6.039 -0.259
-6.313 -6.039 -0.259
-6.313 -6.039 -0.259
-6.313 -6.039 -0.259
-6.340 -6.912 0.587
-6.309 -6.038 -0.256
-5.947 -5.944 0.012
-6.277 -6.959 0.697
-6.457 -5.731 -0.713
-6.806 -7.539 0.747
-6.806 -7.539 0.747
-6.783 -7.534 0.765
-6.309 -6.038 -0.256
-5.948 -5.944 0.011
-6.457 -5.731 -0.713
-6.309 -6.038 -0.256
-6.058 -7.000 0.957
-6.309 -6.038 -0.256
-5.981 -7.005 1.038
-6.269 -6.848 0.592
-6.264 -6.913 0.663
-5.946 -5.944 0.012
-6.272 -5.721 -0.537
-6.309 -6.038 -0.256
-6.309 -6.038 -0.256
-6.803 -7.539 0.751
-6.058 -7.000 0.957
-5.946 -5.944 0.012
-6.783 -7.534 0.765
-6.783 -7.534 0.765
-6.262 -6.960 0.712
-6.809 -7.539 0.744
-6.309 -6.038 -0.256
-6.783 -7.534 0.765
-6.279 -6.958 0.693
-6.855 -7.533 0.693
-6.312 -6.039 -0.258
-6.855 -7.533 0.692
-6.258 -6.910 0.666
-5.164 -5.816 0.667
-6.275 -5.720 -0.540
-6.249 -6.909 0.674
-6.400 -6.858 0.471
-6.058 -7.000 0.957
-5.965 -7.008 1.057
-6.795 -7.539 0.758
-6.795 -7.539 0.758
-5.856 -6.017 0.175
-5.851 -6.018 0.182
-6.536 -6.134 -0.387
-6.536 -6.134 -0.387
-6.775 -7.537 0.776
-6.240 -6.969 0.743
-6.244 -6.851 0.620
-5.860 -6.030 0.184
-5.860 -6.030 0.184
-6.244 -6.851 0.620
-6.162 -6.123 -0.025
-6.244 -6.851 0.620
-5.860 -6.030 0.184
-6.801 -7.542 0.756
-6.793 -7.542 0.763
-6.801 -7.542 0.756
-6.793 -7.542 0.763
-6.302 -6.920 0.634
-6.536 -6.134 -0.387
-6.218 -6.921 0.718
-6.326 -6.852 0.539
-6.819 -5.860 -0.945
-5.860 -6.031 0.185
-6.326 -6.852 0.539
-6.897 -7.549 0.667
-6.897 -7.549 0.667
-6.250 -6.851 0.615
-6.250 -6.851 0.615
-6.791 -7.542 0.766
-5.935 -7.010 1.089
-6.162 -6.123 -0.024
-6.791 -7.542 0.766
-6.250 -6.851 0.615
-6.791 -7.542 0.766
-5.364 -5.982 0.633
-6.777 -7.544 0.782
-6.775 -7.537 0.776
-6.258 -6.967 0.723
-6.258 -6.967 0.723
-6.244 -6.850 0.619
-6.251 -6.850 0.612
-6.362 -6.845 0.498
-6.797 -7.543 0.760
-6.895 -7.549 0.668
-6.835 -5.856 -0.966
-6.379 -6.862 0.496
-6.540 -6.135 -0.391
-6.840 -5.855 -0.971
-6.540 -6.135 -0.391
-6.775 -7.537 0.776
-6.251 -6.850 0.612
-5.861 -6.033 0.186
-5.918 -7.012 1.109
-6.422 -6.971 0.563
-6.251 -6.850 0.612
-6.794 -7.542 0.762
-6.794 -7.542 0.762
-6.219 -6.920 0.716
-6.227 -6.921 0.708
-6.775 -7.537 0.776
-6.536 -6.134 -0.387
-5.861 -6.030 0.184
-6.286 -6.850 0.577
-5.861 -6.030 0.184
-5.312 -5.836 0.539
-6.362 -6.845 0.498
-6.789 -7.543 0.768
-6.775 -7.537 0.776
-6.775 -7.537 0.776
-6.040 -7.024 0.999
-4.621 -4.574 -0.032
-6.794 -7.542 0.762
-5.371 -5.981 0.624
-6.162 -6.123 -0.024
-6.537 -6.135 -0.388
-6.785 -7.545 0.774
-5.364 -5.982 0.633
-5.924 -7.015 1.106
-6.319 -6.913 0.608
-6.013 -7.005 1.006
-6.013 -7.005 1.006
-6.536 -6.135 -0.387
-5.371 -5.981 0.624
-5.857 -6.030 0.188
-6.240 -6.969 0.743
-5.364 -5.982 0.633
-5.857 -6.030 0.188
-6.249 -6.027 -0.210
-5.858 -6.035 0.191
-5.858 -6.035 0.191
-6.777 -7.544 0.782
-6.818 -5.860 -0.944
-5.364 -5.982 0.633
-7.611 -7.487 -0.117
-6.536 -6.135 -0.387
-5.364 -5.982 0.633
-5.857 -6.030 0.188
-5.350 -5.954 0.619
-6.542 -6.136 -0.392
-5.364 -5.982 0.633
-6.302 -6.920 0.634
-5.371 -5.981 0.624
-5.371 -5.981 0.624
-6.385 -6.911 0.540
-6.162 -6.123 -0.025
-5.860 -6.030 0.184
-6.536 -6.134 -0.387
-6.799 -7.542 0.757
-6.799 -7.542 0.757
-6.240 -6.969 0.743
-5.371 -5.981 0.624
-6.778 -7.544 0.781
-6.785 -7.545 0.774
-5.364 -5.982 0.633
-6.013 -7.005 1.006
-6.775 -7.537 0.776
-5.371 -5.981 0.624
-5.783 -6.052 0.284
-6.162 -6.123 -0.025
-5.364 -5.982 0.633
-5.364 -5.982 0.633
-6.326 -6.852 0.539
-5.364 -5.982 0.633
-6.245 -6.970 0.739
-5.364 -5.982 0.633
-6.777 -7.544 0.782
-6.244 -6.856 0.625
-6.537 -6.135 -0.388
-5.364 -5.982 0.633
-5.371 -5.981 0.624
-4.974 -5.724 0.764
-5.319 -5.831 0.526
-6.536 -6.134 -0.387
-5.364 -5.982 0.633
-6.835 -5.856 -0.965
-6.834 -5.866 -0.955
-6.785 -7.545 0.774
-6.362 -6.845 0.498
-6.362 -6.845 0.498
-6.775 -7.537 0.776
-6.536 -6.134 -0.387
-6.240 -6.969 0.743
-5.860 -6.030 0.184
-6.279 -6.926 0.662
-9.361 -8.998 -0.349
-6.819 -5.860 -0.945
-6.240 -6.969 0.743
-6.218 -6.920 0.717
-5.860 -6.031 0.185
-6.301 -6.920 0.634
-6.775 -7.537 0.776
-6.775 -7.537 0.776
-5.364 -5.982 0.633
-5.857 -6.031 0.189
-5.364 -5.982 0.633
-6.393 -6.975 0.595
-5.364 -5.982 0.633
-6.379 -6.862 0.496
-5.350 -5.954 0.619
-5.350 -5.954 0.619
-5.364 -5.982 0.633
-5.371 -5.981 0.624
-8.083 -8.038 -0.032
-6.275 -6.930 0.670
-5.939 -7.012 1.087
-6.884 -7.551 0.681
-6.245 -6.970 0.739
-6.275 -6.930 0.670
-6.275 -6.930 0.670
-6.409 -6.975 0.580
-6.775 -7.537 0.776
-6.892 -7.548 0.671
-6.499 -6.136 -0.348
-6.024 -7.027 1.017
-6.775 -7.537 0.776
-6.301 -6.920 0.634
-7.025 -6.244 -0.769
-7.333 -6.651 -0.670
-7.333 -6.651 -0.670
-6.689 -7.007 0.331
-7.025 -6.244 -0.769
-7.333 -6.651 -0.670
-7.025 -6.244 -0.769
-7.333 -6.651 -0.670
-7.333 -6.651 -0.670
-6.672 -7.213 0.555
-7.025 -6.244 -0.769
-7.025 -6.244 -0.769
-7.333 -6.651 -0.670
-7.025 -6.244 -0.769
-6.689 -7.007 0.331
-7.333 -6.651 -0.670
-7.025 -6.244 -0.769
-6.012 -5.843 -0.156
-6.012 -5.843 -0.156
-7.333 -6.651 -0.670
-7.333 -6.651 -0.670
-7.333 -6.651 -0.670
-7.333 -6.651 -0.670
-7.025 -6.244 -0.769
-7.333 -6.651 -0.670
-7.333 -6.651 -0.670
-6.672 -7.213 0.555
-7.333 -6.651 -0.670
-7.333 -6.651 -0.670
-7.025 -6.244 -0.769
-7.025 -6.244 -0.769
-6.672 -7.213 0.555
-6.672 -7.213 0.555
-6.672 -7.213 0.555
-6.689 -7.007 0.331
-7.025 -6.244 -0.769
-7.025 -6.244 -0.769
-6.672 -7.213 0.555
-6.689 -7.007 0.331
-6.012 -5.843 -0.156
-7.025 -6.244 -0.769
-7.333 -6.651 -0.670
-7.333 -6.651 -0.670
-7.333 -6.651 -0.670
-7.333 -6.651 -0.670
-6.672 -7.213 0.555
-7.333 -6.651 -0.670
-7.025 -6.244 -0.769
-6.672 -7.213 0.555
-7.333 -6.651 -0.670
-7.333 -6.651 -0.670
-6.672 -7.213 0.555
-6.689 -7.007 0.331
-6.689 -7.007 0.331
-6.672 -7.213 0.555
-7.333 -6.651 -0.670
-7.333 -6.651 -0.670
-7.333 -6.651 -0.670
-7.333 -6.651 -0.670
-6.689 -7.007 0.331
-7.025 -6.244 -0.769
-7.333 -6.651 -0.670
-7.333 -6.651 -0.670
-6.672 -7.213 0.555
-6.672 -7.213 0.555
-6.672 -7.213 0.555
-7.025 -6.244 -0.769
-7.025 -6.244 -0.769
-7.333 -6.651 -0.670
-7.333 -6.651 -0.670
-7.333 -6.651 -0.670
-6.689 -7.007 0.332
-5.636 -5.614 -0.009
-7.022 -6.244 -0.766
-7.022 -6.244 -0.766
-6.675 -7.217 0.556
-7.332 -6.650 -0.669
-6.345 -6.217 -0.114
-7.022 -6.244 -0.766
-7.332 -6.650 -0.669
-7.022 -6.244 -0.766
-6.675 -7.217 0.556
-6.675 -7.217 0.556
-7.022 -6.244 -0.766
-6.675 -7.217 0.556
-7.332 -6.650 -0.669
-6.675 -7.217 0.556
-6.675 -7.217 0.556
-7.332 -6.650 -0.669
-7.332 -6.650 -0.669
-5.519 -5.873 0.369
-6.681 -7.008 0.340
-6.681 -7.008 0.340
-7.333 -6.650 -0.670
-7.333 -6.650 -0.670
-7.022 -6.244 -0.766
-7.022 -6.244 -0.766
-7.022 -6.244 -0.766
-6.681 -7.008 0.340
-6.345 -6.216 -0.114
-7.333 -6.650 -0.670
-7.022 -6.244 -0.766
-5.443 -5.707 0.278
-6.674 -7.216 0.556
-6.674 -7.216 0.556
-8.049 -6.146 -1.890
-6.686 -7.010 0.338
-7.327 -6.650 -0.664
-7.021 -6.244 -0.764
-6.007 -5.844 -0.150
-7.327 -6.650 -0.664
-6.108 -6.226 0.132
-7.327 -6.650 -0.664
-6.686 -7.010 0.338
-7.021 -6.244 -0.764
-5.636 -5.614 -0.009
-6.682 -7.008 0.340
-6.675 -7.217 0.556
-6.007 -5.843 -0.151
-7.332 -6.650 -0.669
-6.007 -5.843 -0.151
-7.022 -6.244 -0.766
-7.022 -6.244 -0.766
-6.108 -6.225 0.132
-7.266 -6.049 -1.208
-6.675 -7.217 0.556
-6.675 -7.217 0.556
-6.684 -7.010 0.339
-6.108 -6.226 0.132
-7.021 -6.244 -0.764
-5.636 -5.614 -0.009
-6.345 -6.217 -0.114
-6.007 -5.843 -0.151
-7.022 -6.244 -0.766
-6.108 -6.225 0.132
-6.682 -7.008 0.340
-6.675 -7.217 0.556
-6.345 -6.217 -0.114
-7.332 -6.650 -0.669
-6.345 -6.217 -0.114
-7.022 -6.244 -0.766