-24.419 -8.898 -16.912
-29.260 -10.973 -18.535
-29.260 -10.973 -18.535
-12.891 -12.277 -0.597
-29.117 -11.021 -18.346
-25.928 -10.771 -15.419
-29.117 -11.021 -18.346
-24.419 -8.898 -16.912
-24.419 -8.898 -16.912
-25.934 -10.770 -15.426
-25.934 -10.770 -15.426
-22.386 -12.569 -9.880
-18.322 -10.436 -8.314
-22.750 -12.571 -10.247
-24.437 -8.956 -16.861
-25.829 -10.783 -15.298
-24.437 -8.956 -16.861
-29.036 -11.036 -18.248
-22.321 -12.598 -9.786
-24.322 -8.910 -16.805
-25.845 -10.781 -15.317
-12.907 -12.281 -0.609
-29.045 -11.033 -18.259
-12.542 -11.592 -0.931
-24.322 -8.910 -16.804
-29.169 -10.987 -18.428
-25.556 -10.721 -15.107
-24.323 -8.910 -16.805
-29.046 -11.033 -18.261
-25.254 -9.632 -15.756
-29.050 -11.032 -18.266
-29.050 -11.032 -18.266
-24.328 -8.909 -16.811
-22.325 -12.597 -9.792
-12.906 -12.282 -0.606
-22.325 -12.597 -9.792
-25.251 -9.632 -15.753
-29.175 -10.986 -18.436
-22.325 -12.597 -9.792
-29.038 -11.035 -18.250
-16.200 -7.516 -9.511
-12.445 -11.466 -0.961
-22.378 -12.574 -9.869
-28.837 -11.042 -18.041
-24.439 -8.955 -16.863
-24.325 -8.910 -16.808
-24.453 -8.954 -16.879
-13.270 -7.336 -5.970
-12.147 -11.792 -0.333
-19.041 -12.630 -6.458
-29.168 -10.987 -18.428
-29.168 -10.987 -18.428
-29.041 -11.034 -18.254
-12.533 -10.502 -2.117
-12.449 -12.023 -0.416
-12.449 -12.023 -0.416
-18.524 -10.429 -8.521
-29.169 -10.987 -18.429
-12.906 -12.281 -0.608
-19.056 -12.627 -6.474
-29.049 -10.980 -18.313
-13.354 -7.309 -6.082
-12.906 -12.281 -0.608
-22.325 -12.597 -9.792
-29.038 -11.035 -18.250
-28.837 -11.042 -18.041
-12.540 -11.593 -0.929
-18.930 -12.632 -6.347
-19.028 -12.632 -6.443
-24.325 -8.910 -16.808
-12.882 -12.281 -0.584
-29.048 -11.033 -18.263
-21.840 -12.674 -9.219
-24.454 -8.954 -16.879
-12.907 -12.281 -0.609
-24.453 -8.954 -16.879
-29.172 -10.986 -18.432
-12.542 -11.592 -0.931
-19.033 -12.631 -6.449
-29.172 -10.986 -18.432
-24.448 -8.954 -16.873
-21.839 -12.675 -9.217
-24.449 -8.954 -16.874
-29.045 -11.034 -18.259
-13.355 -7.309 -6.083
-25.628 -10.789 -15.086
-17.280 -8.562 -8.729
-22.317 -12.600 -9.781
-29.033 -11.036 -18.244
-29.033 -11.036 -18.244
-12.881 -12.282 -0.582
-19.567 -13.085 -6.496
-24.434 -8.956 -16.858
-29.033 -11.036 -18.244
-28.832 -11.043 -18.035
-12.416 -11.463 -0.936
-19.564 -13.087 -6.492
-22.749 -12.571 -10.246
-29.036 -11.036 -18.248
-12.906 -12.282 -0.606
-12.448 -12.023 -0.415
-12.448 -12.023 -0.415
-18.522 -10.429 -8.519
-16.351 -12.413 -4.044
-24.436 -8.956 -16.860
-25.774 -10.712 -15.340
-25.556 -10.721 -15.107
-28.846 -11.040 -18.052
-29.170 -10.987 -18.430
-28.843 -11.041 -18.048
-28.843 -11.041 -18.048
-25.556 -10.721 -15.107
-12.149 -10.698 -1.436
-18.364 -10.429 -8.368
-29.043 -11.034 -18.256
-17.337 -8.551 -8.799
-21.834 -12.678 -9.208
-11.492 -11.152 -0.319
-25.910 -10.722 -15.465
-13.367 -11.950 -1.399
-24.401 -8.960 -16.821
-25.558 -10.799 -15.001
-21.728 -12.676 -9.103
-28.995 -11.043 -18.199
-21.728 -12.676 -9.103
-13.243 -7.345 -5.933
-21.728 -12.676 -9.103
-25.841 -10.734 -15.379
-21.544 -7.925 -13.775
-21.728 -12.676 -9.103
-11.484 -11.161 -0.302
-19.450 -13.098 -6.365
-19.450 -13.098 -6.365
-19.015 -12.637 -6.425
-19.450 -13.098 -6.365
-18.481 -10.437 -8.473
-18.481 -10.437 -8.473
-19.450 -13.098 -6.365
-18.481 -10.437 -8.473
-24.274 -8.917 -16.751
-21.728 -12.676 -9.102
-18.378 -10.424 -8.386
-11.486 -11.161 -0.304
-19.467 -13.097 -6.383
-19.467 -13.097 -6.383
-12.423 -11.991 -0.423
-20.066 -13.050 -7.033
-24.121 -12.693 -11.478
-21.755 -12.678 -9.128
-11.485 -11.161 -0.303
-29.009 -11.041 -18.215
-16.236 -7.464 -9.539
-17.120 -8.579 -8.553
-12.513 -11.595 -0.899
-20.070 -13.051 -7.036
-19.473 -13.102 -6.385
-18.908 -12.640 -6.317
-19.006 -12.640 -6.413
-20.070 -13.051 -7.036
-18.509 -10.430 -8.509
-25.428 -9.488 -16.046
-13.457 -7.256 -6.242
-12.517 -11.593 -0.905
-19.487 -13.094 -6.407
-13.404 -6.074 -7.800
-24.437 -8.954 -16.862
-12.656 -12.044 -0.600
-19.070 -12.629 -6.486
-24.436 -8.954 -16.862
-23.739 -12.750 -11.034
-29.014 -11.041 -18.222
-12.469 -12.030 -0.430
-21.755 -12.676 -9.130
-21.755 -12.676 -9.130
-28.813 -11.048 -18.012
-21.755 -12.676 -9.130
-29.014 -11.041 -18.222
-21.755 -12.676 -9.130
-24.121 -12.693 -11.479
-11.922 -10.772 -1.133
-25.786 -10.790 -15.244
-29.011 -11.041 -18.219
-21.755 -12.678 -9.128
-18.789 -12.190 -6.763
-21.805 -12.652 -9.205
-29.012 -11.041 -18.219
-18.355 -10.429 -8.363
-29.010 -11.041 -18.218
-24.416 -8.957 -16.839
-29.010 -11.041 -18.218
-13.444 -7.260 -6.224
-24.416 -8.957 -16.839
-18.257 -10.456 -8.236
-10.862 -11.102 0.261
-19.084 -12.629 -6.500
-10.719 -11.098 0.400
-19.482 -13.095 -6.401
-16.235 -7.465 -9.537
-21.749 -12.680 -9.120
-29.007 -11.042 -18.213
-13.441 -7.261 -6.220
-28.692 -11.042 -17.895
-28.809 -11.048 -18.007
-12.513 -11.595 -0.899
-19.474 -13.100 -6.388
-18.511 -10.429 -8.511
-12.403 -11.467 -0.918
-24.413 -8.957 -16.836
-13.443 -7.261 -6.222
-28.692 -11.042 -17.895
-21.752 -12.678 -9.125
-21.811 -12.684 -9.178
-21.562 -7.923 -13.794
-24.414 -8.957 -16.837
-29.009 -11.041 -18.216
-24.414 -8.957 -16.837
-24.414 -8.957 -16.837
-24.414 -8.957 -16.837
-21.752 -12.679 -9.124
-28.808 -11.048 -18.007
-28.808 -11.048 -18.007
-29.009 -11.041 -18.215
-28.808 -11.048 -18.007
-12.513 -11.595 -0.900
-19.008 -12.639 -6.417
-12.422 -11.991 -0.423
-19.496 -13.109 -6.402
-24.414 -8.957 -16.837
-24.414 -8.957 -16.837
-11.485 -11.162 -0.302
-14.339 -8.485 -6.281
-29.006 -11.042 -18.213
-25.781 -10.791 -15.237
-18.253 -10.457 -8.231
-20.079 -13.046 -7.050
-24.408 -8.958 -16.830
-12.546 -12.049 -0.486
-19.054 -12.633 -6.467
-29.004 -11.043 -18.209
-13.440 -7.262 -6.218
-24.535 -8.942 -16.970
-24.535 -8.942 -16.970
-21.933 -12.660 -9.327
-12.507 -12.343 -0.147
-15.216 -10.211 -5.303
-12.884 -12.280 -0.587
-19.587 -13.077 -6.523
-16.370 -12.411 -4.066
-24.503 -8.947 -16.934
-12.422 -11.461 -0.944
-29.089 -11.027 -18.312
-19.354 -13.093 -6.286
-29.089 -11.027 -18.312
-29.089 -11.027 -18.312
-21.870 -12.655 -9.268
-29.089 -11.027 -18.311
-29.089 -11.027 -18.311
-29.089 -11.027 -18.311
-18.295 -10.437 -8.287
-29.088 -11.027 -18.310
-29.088 -11.027 -18.310
-17.165 -8.569 -8.609
-17.165 -8.569 -8.609
-24.501 -8.948 -16.931
-29.087 -11.027 -18.309
-21.868 -12.655 -9.266
-29.088 -11.027 -18.310
-12.526 -11.588 -0.919
-19.582 -13.080 -6.517
-19.673 -13.068 -6.619
-19.583 -13.079 -6.517
-12.404 -12.019 -0.376
-29.089 -11.027 -18.311
-13.383 -7.299 -6.121
-12.526 -11.588 -0.919
-19.583 -13.079 -6.517
-24.502 -8.947 -16.933
-25.886 -10.777 -15.366
-24.502 -8.947 -16.933
-21.677 -7.910 -13.922
-13.383 -7.299 -6.121
-25.886 -10.777 -15.366
-18.396 -10.417 -8.408
-29.109 -11.023 -18.335
-17.172 -8.565 -8.620
-29.108 -11.023 -18.334
-21.885 -12.655 -9.282
-21.885 -12.655 -9.282
-13.385 -7.297 -6.126
-29.109 -11.023 -18.335
-12.533 -11.587 -0.927
-24.522 -8.944 -16.956
-21.885 -12.655 -9.282
-12.384 -12.018 -0.358
-29.109 -11.023 -18.335
-14.243 -8.506 -6.156
-13.499 -7.241 -6.298
-24.520 -8.944 -16.954
-25.904 -10.774 -15.387
-18.396 -10.417 -8.408
-12.512 -12.352 -0.144
-13.499 -7.241 -6.298
-24.521 -8.944 -16.955
-21.933 -12.629 -9.359
-24.521 -8.944 -16.955
-29.108 -11.023 -18.334
-18.327 -10.429 -8.328
-21.496 -7.936 -13.713
-16.307 -7.435 -9.634
-20.061 -13.088 -6.990
-21.762 -7.903 -14.012
-29.110 -11.023 -18.336
-25.907 -10.774 -15.391
-12.533 -11.587 -0.927
-16.234 -10.210 -6.264
-19.067 -12.626 -6.487
-19.600 -13.078 -6.536
-24.523 -8.943 -16.957
-18.293 -10.431 -8.294
-21.691 -7.906 -13.941
-25.649 -10.709 -15.220
-29.114 -11.021 -18.342
-29.114 -11.021 -18.342
-18.406 -10.417 -8.418
-18.302 -10.449 -8.285
-12.327 -10.486 -1.919
-16.302 -7.435 -9.628
-21.937 -12.624 -9.367
-24.520 -8.944 -16.955
-29.110 -11.022 -18.337
-29.110 -11.022 -18.337
-18.300 -10.449 -8.283
-19.708 -13.056 -6.666
-29.113 -11.021 -18.340
-8.236 -8.422 0.207
-13.502 -7.240 -6.303
-29.113 -11.021 -18.340
-29.113 -11.021 -18.340
-24.523 -8.943 -16.958
-11.506 -11.145 -0.340
-24.521 -8.944 -16.955
-21.507 -7.931 -13.728
-29.113 -11.021 -18.340
-24.523 -8.943 -16.958
-17.169 -8.564 -8.618
-7.580 -7.945 0.388
-29.111 -11.021 -18.339
-18.405 -10.417 -8.418
-19.377 -13.088 -6.314
-21.507 -7.931 -13.728
-21.774 -7.898 -14.029
-12.474 -12.037 -0.426
-29.112 -11.021 -18.340
-12.891 -12.277 -0.598
-19.632 -13.080 -6.568
-19.097 -12.620 -6.522
-19.701 -13.060 -6.655
-20.186 -13.017 -7.187
-20.230 -13.024 -7.225
-18.458 -10.449 -8.435
-18.458 -10.449 -8.435
-21.699 -7.906 -13.948
-18.368 -10.418 -8.381
-7.566 -7.987 0.444
-25.898 -10.774 -15.381
-18.297 -10.449 -8.280
-19.143 -12.615 -6.571
-19.143 -12.615 -6.571
-18.465 -10.448 -8.442
-18.635 -10.410 -8.652
-21.697 -7.906 -13.946
-11.488 -11.079 -0.389
-18.452 -10.449 -8.428
-19.624 -13.087 -6.552
-14.486 -8.600 -6.030
-11.456 -11.954 0.501
-19.605 -13.078 -6.542
-12.558 -12.288 -0.254
-24.505 -8.946 -16.938
-28.964 -11.023 -18.187
-13.377 -7.299 -6.115
-8.308 -8.422 0.134
-25.684 -10.781 -15.154
-18.859 -12.180 -6.835
-11.488 -11.079 -0.389
-28.955 -11.025 -18.176
-12.889 -12.279 -0.593
-12.557 -12.288 -0.253
-24.505 -8.945 -16.938
-29.098 -11.025 -18.323
-21.695 -7.906 -13.944
-13.490 -7.244 -6.287
-21.936 -12.628 -9.363
-12.491 -12.020 -0.462
-21.939 -12.628 -9.366
-24.448 -8.943 -16.897
-24.448 -8.943 -16.897
-14.227 -8.497 -6.144
-7.683 -7.894 0.234
-12.437 -11.990 -0.439
-24.505 -8.946 -16.938
-17.165 -8.568 -8.610
-25.646 -10.709 -15.217
-18.405 -10.417 -8.417
-25.922 -10.771 -15.410
-21.956 -12.655 -9.354
-29.113 -11.021 -18.341
-18.865 -12.173 -6.852
-24.524 -8.943 -16.959
-11.506 -11.145 -0.340
-13.501 -7.240 -6.302
-19.282 -13.049 -6.261
-13.376 -7.284 -6.130
-29.112 -11.021 -18.340
-11.339 -6.546 -5.158
-13.501 -7.240 -6.302
-24.301 -8.938 -16.761
-29.113 -11.021 -18.341
-24.524 -8.943 -16.959
-20.398 -12.360 -8.113
-12.285 -11.615 -0.651
-25.577 -10.770 -15.061
-12.892 -12.277 -0.598
-12.441 -11.987 -0.447
-7.630 -7.929 0.322
-13.389 -7.295 -6.131
-21.507 -7.931 -13.728
-21.942 -12.623 -9.372
-12.385 -12.018 -0.359
-29.113 -11.021 -18.341
-13.502 -7.240 -6.303
-15.479 -3.302 -13.384
-8.291 -8.519 0.247
-11.589 -10.592 -0.984
-24.524 -8.943 -16.959
-13.381 -6.057 -7.804
-19.145 -12.614 -6.574
-18.568 -10.421 -8.573
-16.413 -11.965 -4.515
-16.424 -12.391 -4.143
-12.442 -11.987 -0.448
-24.523 -8.943 -16.958
-29.112 -11.021 -18.340
-12.425 -11.460 -0.949
-19.629 -13.081 -6.563
-29.112 -11.021 -18.340
-29.112 -11.021 -18.340
-13.423 -6.068 -7.827
-12.280 -7.504 -5.207
-17.682 -12.701 -5.094
-12.445 -11.984 -0.454
-24.525 -8.943 -16.961
-13.502 -7.239 -6.303
-13.502 -7.239 -6.303
-29.115 -11.021 -18.343
-13.502 -7.239 -6.303
-29.115 -11.021 -18.343
-16.305 -7.434 -9.632
-12.478 -12.041 -0.427
-12.371 -12.041 -0.321
-13.502 -7.240 -6.302
-21.941 -12.623 -9.372
-18.836 -12.173 -6.827
-25.747 -10.747 -15.271
-14.241 -8.506 -6.154
-25.920 -10.772 -15.408
-29.112 -11.021 -18.339
-12.934 -7.408 -5.557
-13.502 -7.240 -6.303
-14.327 -8.634 -5.833
-18.299 -10.450 -8.281
-18.467 -10.449 -8.443
-12.438 -11.990 -0.441
-24.523 -8.943 -16.957
-24.523 -8.943 -16.957
-29.111 -11.021 -18.339
-13.502 -7.240 -6.303
-21.767 -7.900 -14.020
-12.535 -11.587 -0.929
-29.110 -11.022 -18.338
-17.628 -12.744 -4.895
-11.592 -10.591 -0.987
-7.569 -8.035 0.490
-11.433 -11.178 -0.269
-11.693 -10.677 -0.998
-12.734 -12.285 -0.432
-21.708 -7.903 -13.960
-24.535 -8.942 -16.970
-29.118 -11.022 -18.345
-29.118 -11.022 -18.345
-12.048 -10.835 -1.196
-13.514 -7.236 -6.319
-8.275 -8.517 0.263
-24.535 -8.942 -16.970
-13.514 -7.236 -6.319
-18.306 -10.430 -8.311
-12.404 -12.018 -0.377
-13.312 -6.073 -7.715
-24.501 -8.948 -16.931
-21.748 -7.907 -13.994
-12.031 -10.830 -1.184
-13.497 -7.244 -6.294
-18.262 -10.457 -8.237
-7.629 -7.929 0.323
-14.351 -8.482 -6.299
-16.306 -7.435 -9.632
-12.303 -10.341 -2.027
-13.319 -6.070 -7.726
-28.966 -11.023 -18.189
-12.533 -11.587 -0.926
-14.348 -8.483 -6.293
-18.448 -10.450 -8.424
-19.599 -13.078 -6.535
-13.426 -6.067 -7.830
-16.625 -10.492 -6.308
-19.018 -12.617 -6.445
-14.491 -8.599 -6.036
-19.703 -13.062 -6.655
-24.523 -8.943 -16.957
-21.936 -12.629 -9.362
-15.211 -10.178 -5.334
-13.321 -6.069 -7.728
-19.140 -12.616 -6.567
-19.140 -12.616 -6.567
-16.404 -11.959 -4.511
-16.293 -10.228 -6.291
-11.571 -12.050 0.495
-14.491 -8.599 -6.037
-21.692 -7.906 -13.941
-29.109 -11.023 -18.335
-14.318 -8.493 -6.243
-18.292 -10.450 -8.274
-19.025 -12.615 -6.454
-19.610 -13.072 -6.551
-14.804 -8.933 -6.026
-19.146 -12.615 -6.575
-11.708 -11.934 0.227
-19.633 -13.081 -6.566
-29.109 -11.023 -18.336
-24.522 -8.944 -16.957
-16.222 -7.435 -9.559
-13.500 -7.241 -6.299
-13.500 -7.241 -6.299
-13.380 -6.057 -7.803
-7.631 -7.929 0.321
-19.635 -13.081 -6.568
-11.024 -10.891 -0.199
-12.442 -11.986 -0.448
-12.442 -11.986 -0.448
-12.442 -11.986 -0.448
-18.464 -10.445 -8.441
-7.685 -7.895 0.233
-19.637 -13.081 -6.570
-16.293 -10.227 -6.294
-12.442 -11.986 -0.448
-19.637 -13.081 -6.570
-13.690 -8.669 -5.510
-14.621 -8.579 -6.185
-13.320 -6.069 -7.727
-12.441 -11.986 -0.446
-18.463 -10.448 -8.440
-18.463 -10.448 -8.440
-16.292 -10.228 -6.290
-18.463 -10.448 -8.440
-14.427 -8.470 -6.385
-19.701 -13.062 -6.653
-19.633 -13.081 -6.567
-13.425 -6.067 -7.830
-18.460 -10.449 -8.437
-13.320 -6.069 -7.727
-10.537 -11.092 0.577
-19.138 -12.616 -6.565
-16.217 -7.438 -9.552
-13.500 -7.241 -6.299
-17.023 -12.839 -4.282
-24.117 -8.948 -16.570
-14.208 -8.513 -6.113
-13.501 -7.240 -6.301
-7.240 -7.420 0.202
-19.638 -13.079 -6.573
-16.430 -12.379 -4.161
-10.901 -10.942 -0.021
-7.685 -7.894 0.232
-19.638 -13.079 -6.573
-12.438 -11.989 -0.440
-10.210 -10.576 0.386
-16.065 -10.224 -6.080
-16.065 -10.224 -6.080
-16.321 -10.234 -6.308
-7.631 -7.929 0.321
-12.560 -12.287 -0.257
-13.757 -8.658 -5.589
-13.323 -6.069 -7.730
-19.139 -12.616 -6.566
-16.292 -10.228 -6.291
-14.427 -8.470 -6.385
-19.633 -13.082 -6.565
-16.292 -10.228 -6.291
-15.531 -10.726 -4.979
-19.633 -13.082 -6.565
-11.648 -6.489 -5.563
-28.970 -11.023 -18.193
-13.501 -7.241 -6.301
-18.208 -10.458 -8.180
-18.292 -10.450 -8.275
-24.524 -8.943 -16.958
-21.693 -7.906 -13.943
-13.384 -6.056 -7.809
-11.575 -12.050 0.492
-15.933 -10.242 -5.928
-21.760 -7.903 -14.010
-21.692 -7.906 -13.942
-21.934 -12.628 -9.360
-12.423 -11.460 -0.945
-16.606 -10.496 -6.283
-19.619 -13.087 -6.547
-19.619 -13.087 -6.547
-16.371 -12.415 -4.062
-12.435 -11.991 -0.436
-11.028 -10.989 -0.088
-12.435 -11.990 -0.437
-13.737 -10.428 -3.562
-18.261 -10.448 -8.243
-19.068 -12.626 -6.489
-19.619 -13.087 -6.547
-16.235 -10.211 -6.265
-16.306 -7.436 -9.632
-13.499 -7.242 -6.298
-21.931 -12.630 -9.356
-21.931 -12.630 -9.356
-17.289 -8.546 -8.760
-29.107 -11.024 -18.333
-11.920 -10.498 -1.407
-11.946 -10.775 -1.157
-14.271 -8.760 -5.675
-21.996 -12.605 -9.448
-12.381 -12.021 -0.351
-13.501 -7.241 -6.301
-24.112 -8.949 -16.563
-25.909 -10.774 -15.392
-21.936 -12.628 -9.363
-21.936 -12.628 -9.363
-13.501 -7.240 -6.301
-16.309 -7.434 -9.635
-24.524 -8.943 -16.959
-13.501 -7.240 -6.301
-25.909 -10.774 -15.392
-24.524 -8.943 -16.959
-25.909 -10.774 -15.392
-14.316 -8.494 -6.240
-21.694 -7.905 -13.944
-28.972 -11.022 -18.196
-13.501 -7.241 -6.301
-11.587 -11.997 0.409
-28.812 -11.032 -18.019
-12.533 -11.587 -0.926
-12.435 -11.990 -0.437
-19.067 -12.626 -6.487
-19.067 -12.626 -6.487
-12.556 -12.289 -0.252
-12.435 -11.990 -0.437
-16.234 -10.210 -6.265
-25.735 -10.750 -15.253
-21.936 -12.628 -9.363
-21.936 -12.628 -9.363
-11.302 -11.144 -0.138
-19.625 -13.085 -6.555
-12.548 -12.274 -0.259
-7.683 -7.894 0.234
-12.500 -11.983 -0.508
-10.696 -7.057 -4.065
-8.509 -6.913 -1.632
-19.578 -13.082 -6.509
-12.440 -11.986 -0.445
-15.881 -10.226 -5.903
-11.031 -10.985 -0.095
-12.439 -11.986 -0.445
-19.082 -12.624 -6.505
-29.112 -11.023 -18.339
-11.495 -11.101 -0.411
-17.623 -12.703 -5.034
-12.440 -11.986 -0.445
-10.873 -11.089 0.237
-19.089 -12.623 -6.512
-19.621 -13.086 -6.550
-19.089 -12.623 -6.512
-18.268 -10.446 -8.253
-19.572 -13.083 -6.504
-19.621 -13.086 -6.550
-16.382 -12.409 -4.080
-19.089 -12.623 -6.512
-16.382 -12.409 -4.080
-19.621 -13.086 -6.550
-19.621 -13.086 -6.549
-12.431 -12.002 -0.419
-19.089 -12.623 -6.512
-19.621 -13.086 -6.550
-13.756 -8.653 -5.586
-7.630 -7.929 0.321
-28.970 -11.023 -18.193
-13.500 -7.241 -6.300
-29.111 -11.023 -18.337
-13.500 -7.241 -6.300
-13.500 -7.241 -6.300
-16.215 -7.439 -9.549
-13.499 -7.241 -6.299
-12.532 -11.588 -0.925
-12.437 -11.988 -0.441
-12.437 -11.988 -0.441
-10.952 -6.496 -4.783
-12.437 -11.988 -0.441
-16.232 -10.210 -6.262
-12.437 -11.988 -0.441
-12.555 -12.289 -0.250
-12.437 -11.988 -0.441
-18.205 -10.449 -8.189
-12.437 -11.988 -0.441
-12.437 -11.988 -0.441
-8.510 -6.912 -1.633
-18.449 -10.449 -8.426
-18.631 -10.412 -8.646
-21.960 -12.619 -9.395
-29.132 -11.019 -18.363
-13.400 -7.290 -6.147
-13.386 -6.055 -7.811
-11.050 -10.960 -0.144
-7.405 -7.851 0.468
-18.468 -10.448 -8.445
-16.586 -10.518 -6.236
-19.583 -13.079 -6.518
-17.485 -12.807 -4.692
-8.206 -8.513 0.327
-10.191 -10.576 0.405
-16.291 -10.229 -6.289
-15.936 -10.241 -5.932
-16.047 -10.217 -6.075
-12.558 -12.288 -0.254
-10.696 -11.094 0.419
-16.412 -12.393 -4.129
-13.758 -8.654 -5.589
-16.412 -12.393 -4.129
-19.138 -12.616 -6.564
-19.629 -13.082 -6.562
-18.276 -10.209 -8.575
-12.439 -11.988 -0.443
-19.138 -12.616 -6.564
-19.629 -13.082 -6.562
-10.926 -11.019 0.048
-18.632 -10.410 -8.649
-19.140 -12.616 -6.567
-14.426 -8.470 -6.384
-12.559 -12.286 -0.256
-12.437 -11.990 -0.438
-19.138 -12.616 -6.565
-19.138 -12.616 -6.565
-18.222 -10.446 -8.208
-11.647 -6.489 -5.562
-19.138 -12.616 -6.565
-18.459 -10.449 -8.435
-12.436 -11.990 -0.438
-19.138 -12.616 -6.565
-16.291 -10.228 -6.290
-12.376 -12.038 -0.329
-19.581 -13.072 -6.523
-18.464 -10.448 -8.441
-19.140 -12.616 -6.568
-12.547 -11.989 -0.549
-19.581 -13.072 -6.523
-8.338 -8.495 0.175
-12.441 -11.986 -0.447
-19.635 -13.081 -6.569
-19.140 -12.616 -6.567
-19.635 -13.081 -6.569
-19.581 -13.072 -6.523
-13.058 -10.245 -2.796
-13.058 -10.245 -2.796
-13.058 -10.245 -2.796
-13.181 -10.254 -2.911
-13.041 -10.254 -2.771
-9.747 -8.403 -1.356
-13.048 -10.254 -2.777
-13.598 -10.125 -3.469
-11.276 -10.526 -1.024
-12.991 -10.253 -2.721
-12.991 -10.253 -2.721
-12.991 -10.253 -2.721
-13.186 -10.254 -2.915
-12.991 -10.253 -2.721
-13.051 -10.255 -2.780
-9.747 -8.403 -1.356
-13.051 -10.255 -2.780
-13.051 -10.255 -2.780
-12.991 -10.253 -2.721
-12.991 -10.253 -2.721
-10.820 -10.607 -0.438
-13.051 -10.255 -2.780
-13.051 -10.255 -2.780
-10.993 -10.581 -0.666
-12.991 -10.253 -2.721
-10.158 -10.099 -0.037
-10.119 -10.088 -0.010
-12.991 -10.253 -2.721
-13.051 -10.255 -2.780
-12.991 -10.253 -2.721
-12.991 -10.253 -2.721
-13.418 -10.121 -3.291
-13.045 -10.257 -2.772
-13.418 -10.121 -3.291
-12.991 -10.253 -2.721
-13.418 -10.121 -3.291
-10.989 -10.582 -0.659
-10.038 -10.080 0.063
-13.044 -10.257 -2.771
-11.276 -10.526 -1.024
-10.816 -10.608 -0.433
-12.991 -10.253 -2.721
-10.993 -10.581 -0.666
-12.991 -10.253 -2.721
-12.991 -10.253 -2.721
-10.119 -10.088 -0.010
-9.964 -9.571 -0.382
-12.991 -10.253 -2.721
-10.119 -10.088 -0.010
-10.818 -10.607 -0.437
-13.602 -10.125 -3.473
-10.038 -10.080 0.063
-13.044 -10.257 -2.771
-11.256 -9.613 -1.658
-13.045 -10.256 -2.773
-9.745 -8.403 -1.353
-10.992 -10.581 -0.664
-10.039 -10.079 0.061
-12.991 -10.253 -2.721
-10.039 -10.078 0.060
-10.993 -10.581 -0.665
-10.820 -10.607 -0.438
-10.820 -10.607 -0.438
-12.991 -10.253 -2.721
-13.602 -10.125 -3.473
-13.602 -10.125 -3.473
-12.671 -10.783 -2.001
-12.875 -10.255 -2.603
-11.164 -9.635 -1.546
-9.963 -10.110 0.168
-9.909 -8.413 -1.511
-12.991 -10.253 -2.721
-10.993 -10.581 -0.665
-13.051 -10.254 -2.780
-10.993 -10.581 -0.665
-13.051 -10.254 -2.780
-10.119 -10.088 -0.010
-12.998 -10.780 -2.341
-10.039 -10.079 0.061
-12.674 -10.780 -2.006
-13.418 -10.121 -3.291
-11.228 -10.421 -0.974
-13.045 -10.257 -2.772
-10.989 -10.583 -0.659
-10.989 -10.583 -0.659
-10.038 -10.080 0.063
-12.991 -10.253 -2.721
-12.991 -10.253 -2.721
-10.993 -10.581 -0.665
-10.119 -10.088 -0.010
-12.982 -10.256 -2.709
-13.254 -10.131 -3.115
-13.602 -10.125 -3.472
-11.069 -7.919 -3.194
-10.038 -10.080 0.063
-11.069 -7.919 -3.194
-13.250 -10.253 -2.980
-10.820 -10.607 -0.438
-9.953 -10.068 0.137
-13.602 -10.125 -3.472
-9.745 -8.403 -1.354
-13.602 -10.125 -3.473
-10.989 -10.582 -0.659
-11.070 -7.919 -3.195
-11.256 -9.613 -1.658
-13.602 -10.125 -3.473
-13.418 -10.121 -3.291
-13.418 -10.121 -3.291
-11.256 -9.613 -1.658
-13.602 -10.125 -3.473
-13.602 -10.125 -3.473
-10.038 -10.080 0.063
-13.044 -10.257 -2.771
-11.069 -7.919 -3.194
-12.991 -10.253 -2.721
-11.080 -10.530 -0.822
-10.039 -10.078 0.060
-10.993 -10.581 -0.665
-10.820 -10.607 -0.438
-12.998 -10.780 -2.341
-13.602 -10.125 -3.473
-9.745 -8.403 -1.354
-13.045 -10.257 -2.772
-10.119 -10.088 -0.010
-9.043 -8.780 -0.246
-10.157 -10.099 -0.037
-12.991 -10.253 -2.721
-13.602 -10.125 -3.473
-10.816 -10.608 -0.433
-11.256 -9.613 -1.658
-11.256 -9.613 -1.658
-12.998 -10.780 -2.341
-10.119 -10.088 -0.010
-10.818 -10.607 -0.437
-13.602 -10.125 -3.473
-13.045 -10.257 -2.772
-12.991 -10.253 -2.721
-13.602 -10.125 -3.473
-10.816 -10.608 -0.433
-13.602 -10.125 -3.473
-11.070 -7.919 -3.195
-11.070 -7.919 -3.195
-9.745 -8.403 -1.354
-10.158 -10.099 -0.037
-13.186 -10.254 -2.916
-13.051 -10.255 -2.780
-10.993 -10.581 -0.665
-10.820 -10.607 -0.438
-10.820 -10.607 -0.438
-10.820 -10.607 -0.438
-10.820 -10.607 -0.438
-13.602 -10.125 -3.473
-10.816 -10.608 -0.433
-13.418 -10.121 -3.291
-10.816 -10.608 -0.433
-13.602 -10.125 -3.473
-8.988 -8.784 -0.188
-7.517 -7.776 0.277
-10.096 -10.094 0.018
-13.602 -10.125 -3.472
-10.038 -10.080 0.063
-13.186 -10.254 -2.915
-10.119 -10.088 -0.010
-13.602 -10.125 -3.472
-10.096 -10.094 0.018
-10.816 -10.608 -0.433
-10.119 -10.088 -0.010
-13.602 -10.125 -3.473
-10.097 -10.094 0.018
-10.947 -7.925 -3.065
-11.074 -7.917 -3.201
-11.256 -9.613 -1.658
-11.079 -10.530 -0.820
-12.991 -10.253 -2.721
-11.075 -7.917 -3.202
-11.256 -9.613 -1.658
-10.819 -10.607 -0.437
-10.819 -10.607 -0.437
-13.602 -10.125 -3.473
-13.045 -10.257 -2.772
-9.908 -8.413 -1.510
-11.257 -9.607 -1.666
-10.158 -10.099 -0.037
-10.818 -10.607 -0.437
-11.256 -9.613 -1.658
-10.097 -10.081 0.005
-10.097 -10.081 0.005
-10.945 -7.925 -3.063
-11.246 -9.613 -1.648
-12.730 -10.779 -2.065
-13.595 -10.125 -3.465
-9.745 -8.404 -1.354
-11.493 -10.420 -1.222
-10.159 -10.098 -0.039
-13.183 -10.254 -2.913
-13.599 -10.125 -3.469
-9.745 -8.404 -1.354
-9.908 -8.413 -1.509
-10.098 -10.094 0.017
-11.253 -9.612 -1.655
-10.099 -10.092 0.014
-10.099 -10.092 0.014
-13.045 -10.255 -2.774
-13.598 -10.125 -3.469
-13.598 -10.125 -3.469
-10.974 -10.587 -0.643
-10.039 -10.080 0.062
-10.946 -7.925 -3.063
-11.072 -7.918 -3.199
-12.742 -10.779 -2.078
-13.598 -10.125 -3.468
-11.068 -7.919 -3.192
-10.801 -10.612 -0.417
-11.234 -10.425 -0.972
-11.253 -9.612 -1.655
-10.099 -10.092 0.014
-10.804 -10.611 -0.421
-12.990 -10.780 -2.332
-10.049 -10.037 -0.009
-8.652 -9.249 0.609
-11.079 -10.530 -0.820
-8.531 -9.162 0.636
-9.746 -8.403 -1.355
-8.533 -9.163 0.637
-10.098 -10.093 0.016
-12.998 -10.780 -2.341
-11.073 -7.918 -3.199
-10.098 -10.093 0.015
-10.837 -7.920 -2.959
-10.039 -10.079 0.061
-10.158 -10.099 -0.037
-9.746 -8.403 -1.355
-13.311 -10.130 -3.173
-10.818 -10.607 -0.437
-11.079 -10.530 -0.820
-13.602 -10.125 -3.473
-10.816 -10.608 -0.433
-13.045 -10.257 -2.772
-11.019 -7.921 -3.142
-13.051 -10.255 -2.780
-13.186 -10.254 -2.915
-10.098 -10.092 0.015
-8.416 -9.067 0.670
-10.098 -10.092 0.015
-10.158 -10.099 -0.037
-12.998 -10.780 -2.341
-12.751 -10.779 -2.087
-10.098 -10.093 0.016
-13.049 -10.255 -2.777
-10.819 -10.607 -0.437
-10.039 -10.079 0.061
-10.039 -10.079 0.061
-10.098 -10.092 0.016
-10.098 -10.092 0.016
-10.952 -10.596 -0.598
-10.098 -10.092 0.015
-12.751 -10.779 -2.087
-13.418 -10.121 -3.291
-11.256 -9.613 -1.658
-10.098 -10.092 0.016
-12.751 -10.779 -2.087
-12.751 -10.779 -2.087
-13.186 -10.254 -2.915
-9.953 -10.068 0.137
-10.098 -10.092 0.015
-10.098 -10.092 0.015
-11.074 -7.917 -3.200
-10.098 -10.092 0.015
-9.921 -9.208 -0.694
-13.602 -10.125 -3.472
-10.096 -10.094 0.018
-10.096 -10.094 0.018
-12.751 -10.779 -2.087
-10.039 -10.079 0.061
-10.098 -10.092 0.016
-9.953 -10.070 0.139
-13.048 -10.255 -2.777
-12.812 -10.255 -2.541
-13.312 -10.129 -3.175
-10.819 -10.607 -0.437
-13.049 -10.255 -2.778
-13.602 -10.125 -3.473
-9.745 -8.403 -1.354
-9.745 -8.403 -1.354
-10.096 -10.094 0.018
-10.038 -10.080 0.063
-9.951 -10.071 0.142
-10.816 -10.608 -0.433
-10.097 -10.094 0.018
-12.751 -10.779 -2.087
-8.990 -8.782 -0.192
-13.602 -10.125 -3.473
-10.097 -10.094 0.018
-10.816 -10.608 -0.433
-10.009 -10.083 0.096
-13.602 -10.125 -3.473
-10.097 -10.094 0.018
-8.988 -8.784 -0.188
-12.751 -10.779 -2.087
-9.746 -8.403 -1.356
-10.098 -10.092 0.016
-9.746 -8.403 -1.355
-10.952 -10.596 -0.598
-10.158 -10.099 -0.037
-13.186 -10.254 -2.915
-9.952 -10.077 0.146
-10.098 -10.092 0.015
-10.098 -10.092 0.015
-10.098 -10.092 0.015
-11.167 -9.633 -1.551
-13.186 -10.254 -2.915
-10.098 -10.092 0.015
-13.602 -10.125 -3.472
-10.761 -7.925 -2.877
-10.816 -10.608 -0.433
-10.158 -10.099 -0.038
-10.098 -10.093 0.016
-12.998 -10.780 -2.341
-13.658 -10.124 -3.529
-9.745 -8.403 -1.354
-10.096 -10.094 0.018
-9.963 -9.568 -0.386
-10.097 -10.093 0.016
-10.818 -10.607 -0.437
-13.243 -10.256 -2.970
-12.751 -10.779 -2.087
-10.952 -10.596 -0.598
-10.098 -10.092 0.015
-12.751 -10.779 -2.087
-13.049 -10.255 -2.777
-13.049 -10.255 -2.777
-10.819 -10.607 -0.437
-8.990 -8.782 -0.192
-11.258 -9.606 -1.669
-10.765 -7.924 -2.882
-12.998 -10.780 -2.341
-7.862 -7.803 -0.037
-10.098 -10.092 0.016
-10.819 -10.607 -0.437
-12.998 -10.780 -2.341
-13.049 -10.255 -2.777
-10.992 -10.581 -0.664
-10.098 -10.093 0.016
-13.657 -10.124 -3.529
-10.097 -10.094 0.018
-9.745 -8.403 -1.354
-13.602 -10.125 -3.473
-10.038 -10.080 0.063
-13.602 -10.125 -3.473
-10.096 -10.094 0.018
-10.096 -10.094 0.018
-10.761 -7.925 -2.877
-8.988 -8.784 -0.188
-13.602 -10.125 -3.472
-10.096 -10.094 0.018
-10.096 -10.094 0.018
-10.096 -10.094 0.018
-10.096 -10.094 0.018
-10.947 -7.925 -3.065
-11.019 -7.921 -3.142
-10.992 -10.581 -0.665
-7.862 -7.803 -0.037
-8.533 -9.163 0.637
-10.820 -10.607 -0.438
-9.910 -8.413 -1.512
-10.098 -10.092 0.015
-10.098 -10.092 0.015
-10.098 -10.092 0.015
-13.602 -10.125 -3.473
-8.572 -8.367 -0.183
-12.751 -10.779 -2.087
-11.256 -9.613 -1.658
-9.745 -8.403 -1.353
-8.990 -8.782 -0.192
-10.098 -10.092 0.016
-12.998 -10.780 -2.341
-7.799 -7.789 0.012
-10.098 -10.092 0.016
-10.098 -10.093 0.016
-13.602 -10.125 -3.472
-10.096 -10.094 0.018
-10.096 -10.094 0.018
-12.750 -10.779 -2.087
-13.602 -10.125 -3.472
-9.951 -10.070 0.141
-10.096 -10.094 0.018
-8.683 -7.677 -1.007
-10.096 -10.094 0.018
-13.602 -10.125 -3.472
-10.096 -10.094 0.018
-12.751 -10.779 -2.087
-9.952 -10.069 0.138
-11.258 -9.605 -1.669
-9.921 -9.208 -0.694
-10.158 -10.099 -0.037
-13.602 -10.125 -3.472
-9.921 -9.208 -0.694
-12.751 -10.779 -2.087
-10.098 -10.092 0.016
-10.098 -10.092 0.016
-10.097 -10.089 0.013
-10.837 -7.920 -2.959
-10.837 -7.920 -2.959
-7.518 -7.776 0.277
-9.995 -10.116 0.110
-10.819 -10.607 -0.437
-9.909 -8.413 -1.512
-10.098 -10.093 0.016
-12.751 -10.779 -2.087
-13.602 -10.125 -3.473
-11.069 -7.919 -3.195
-9.951 -10.070 0.141
-10.096 -10.094 0.018
-10.038 -10.080 0.063
-8.411 -7.649 -0.767
-12.874 -10.255 -2.603
-10.096 -10.094 0.018
-9.908 -8.413 -1.509
-12.751 -10.779 -2.087
-9.952 -10.069 0.138
-10.098 -10.092 0.016
-13.048 -10.255 -2.777
-17.017 -11.642 -5.433
-17.042 -9.632 -7.441
-17.017 -11.641 -5.433
-17.075 -9.633 -7.472
-17.015 -11.640 -5.433
-17.015 -11.641 -5.432
-17.015 -11.641 -5.432
-17.042 -9.632 -7.441
-17.077 -9.633 -7.475
-16.937 -9.038 -8.167
-17.078 -9.633 -7.475
-14.793 -8.676 -6.577
-14.998 -7.999 -7.013
-16.897 -9.689 -7.237
-17.043 -9.632 -7.442
-16.937 -9.038 -8.168
-8.850 -7.814 -1.024
-17.042 -9.632 -7.441
-17.077 -9.633 -7.475
-12.530 -12.302 -0.215
-17.082 -9.632 -7.480
-10.540 -7.667 -2.906
-17.017 -11.642 -5.432
-16.937 -9.038 -8.167
-14.793 -8.676 -6.577
-14.793 -8.676 -6.577
-8.850 -7.814 -1.024
-17.042 -9.632 -7.441
-17.042 -9.632 -7.441
-17.077 -9.633 -7.475
-12.991 -7.065 -5.927
-17.017 -11.642 -5.433
-16.842 -9.558 -7.653
-16.996 -9.032 -8.230
-10.540 -7.667 -2.906
-17.043 -9.632 -7.441
-16.646 -9.078 -7.852
-17.043 -9.632 -7.442
-17.017 -11.642 -5.433
-16.842 -9.558 -7.653
-14.793 -8.676 -6.576
-16.937 -9.038 -8.167
-17.042 -9.632 -7.441
-10.091 -7.135 -3.050
-17.017 -11.641 -5.434
-16.842 -9.558 -7.653
-17.191 -9.653 -7.566
-16.937 -9.038 -8.167
-8.194 -8.439 0.265
-9.340 -9.338 0.013
-17.042 -9.632 -7.441
-14.793 -8.676 -6.576
-17.042 -9.632 -7.441
-17.017 -11.641 -5.433
-17.267 -9.647 -7.648
-14.789 -8.673 -6.569
-8.124 -8.533 0.430
-14.792 -8.676 -6.575
-16.923 -9.032 -8.159
-17.027 -11.621 -5.463
-16.842 -9.558 -7.653
-7.336 -8.035 0.721
-7.207 -7.244 0.056
-17.076 -9.633 -7.474
-17.009 -9.038 -8.237
-12.990 -7.065 -5.926
-10.552 -7.658 -2.929
-14.597 -8.699 -6.342
-16.937 -9.038 -8.168
-14.795 -8.676 -6.578
-16.937 -9.038 -8.168
-10.553 -7.657 -2.930
-8.260 -8.503 0.261
-10.553 -7.657 -2.930
-16.846 -9.627 -7.252
-12.975 -7.067 -5.910
-16.830 -9.683 -7.174
-8.348 -8.504 0.175
-17.015 -11.639 -5.433
-14.712 -8.678 -6.491
-10.094 -7.128 -3.061
-17.042 -9.632 -7.441
-16.842 -9.558 -7.653
-17.077 -9.633 -7.475
-17.141 -9.648 -7.523
-17.045 -9.627 -7.451
-14.791 -8.673 -6.572
-8.213 -8.531 0.339
-17.042 -9.632 -7.441
-10.508 -11.132 0.643
-16.937 -9.038 -8.167
-16.842 -9.558 -7.653
-17.042 -9.632 -7.441
-16.937 -9.038 -8.167
-17.190 -9.653 -7.566
-17.080 -9.628 -7.485
-12.991 -7.065 -5.927
-9.550 -6.833 -2.718
-8.217 -8.526 0.329
-16.937 -9.038 -8.167
-14.712 -8.678 -6.491
-9.912 -9.819 -0.071
-9.301 -9.184 -0.097
-16.842 -9.558 -7.653
-12.911 -7.069 -5.842
-17.076 -9.633 -7.473
-9.895 -7.495 -2.803
-17.040 -9.632 -7.439
-17.027 -11.621 -5.463
-17.042 -9.632 -7.441
-12.991 -7.065 -5.927
-14.162 -9.023 -5.300
-16.841 -9.558 -7.652
-14.791 -8.676 -6.574
-17.189 -9.654 -7.564
-17.017 -11.642 -5.432
-10.553 -7.657 -2.930
-14.163 -9.022 -5.301
-12.557 -12.289 -0.252
-17.048 -9.631 -7.447
-17.048 -9.631 -7.447
-17.027 -11.621 -5.463
-17.191 -9.653 -7.566
-14.163 -9.022 -5.301
-9.895 -7.495 -2.804
-17.042 -9.632 -7.441
-12.218 -9.124 -3.439