-21.817 -6.673 -15.687
-13.791 -11.629 -2.208
-15.407 -10.137 -5.290
-18.007 -11.260 -6.971
-14.123 -12.278 -1.941
-18.002 -11.262 -6.964
-13.163 -13.720 0.534
-19.369 -12.827 -7.262
-13.780 -11.601 -2.222
-15.383 -10.145 -5.260
-13.214 -11.922 -1.342
-18.001 -11.262 -6.963
-15.100 -14.152 -0.969
-13.781 -11.632 -2.194
-13.596 -14.244 0.606
-21.398 -6.653 -15.235
-14.637 -14.718 -0.305
-13.874 -12.333 -1.618
-15.099 -14.152 -0.967
-21.743 -6.688 -15.590
-15.066 -14.160 -0.925
-14.909 -13.640 -2.539
-14.720 -12.962 -1.802
-13.779 -11.633 -2.192
-17.999 -11.263 -6.960
-13.952 -14.236 0.241
-12.081 -11.612 -0.523
-21.703 -6.656 -15.617
-14.833 -14.156 -0.697
-13.778 -11.601 -2.220
-15.378 -10.147 -5.252
-13.779 -11.633 -2.191
-14.789 -14.154 -0.652
-14.873 -13.584 -2.569
-13.874 -12.332 -1.618
-13.874 -12.333 -1.618
-17.732 -11.321 -6.630
-13.245 -13.672 0.393
-12.078 -11.614 -0.519
-15.362 -10.152 -5.233
-15.099 -14.152 -0.967
-14.784 -14.135 -0.665
-19.362 -12.829 -7.253
-18.259 -11.192 -7.516
-14.769 -14.148 -0.652
-19.434 -10.662 -8.709
-18.259 -11.192 -7.516
-17.735 -11.321 -6.634
-13.246 -13.671 0.391
-14.345 -13.940 -0.504
-17.883 -11.269 -6.836
-15.357 -10.153 -5.228
-18.259 -11.192 -7.516
-21.752 -6.687 -15.601
-12.475 -11.597 -0.932
-17.734 -11.321 -6.633
-17.734 -11.321 -6.633
-14.789 -14.152 -0.653
-17.734 -11.321 -6.632
-18.259 -11.192 -7.516
-13.598 -13.872 0.023
-17.883 -11.269 -6.836
-14.788 -14.153 -0.652
-14.704 -14.160 -0.555
-14.083 -12.361 -1.828
-21.748 -6.688 -15.597
-21.748 -6.688 -15.597
-12.473 -11.598 -0.928
-15.099 -14.152 -0.967
-13.470 -14.593 1.079
-14.787 -14.153 -0.652
-16.408 -10.837 -5.526
-13.874 -12.332 -1.618
-13.380 -10.820 -2.814
-14.833 -14.156 -0.696
-18.259 -11.192 -7.516
-18.335 -10.850 -7.437
-21.599 -6.699 -15.418
-12.475 -11.596 -0.932
-14.673 -13.463 -2.834
-15.361 -10.152 -5.233
-14.789 -14.152 -0.654
-14.789 -14.152 -0.654
-21.706 -6.655 -15.621
-17.628 -11.344 -6.503
-14.709 -14.151 -0.572
-14.655 -14.111 -0.625
-14.790 -14.152 -0.656
-14.790 -14.152 -0.656
-14.790 -14.152 -0.656
-21.706 -6.655 -15.621
-13.701 -13.756 0.012
-13.874 -12.333 -1.618
-12.076 -11.616 -0.515
-13.380 -10.820 -2.814
-12.473 -11.598 -0.927
-12.075 -11.616 -0.514
-17.632 -11.326 -6.523
-13.387 -10.862 -2.776
-13.387 -10.814 -2.827
-18.259 -11.192 -7.516
-12.474 -11.597 -0.930
-13.777 -11.602 -2.218
-13.136 -13.696 0.526
-14.789 -14.152 -0.654
-17.885 -11.269 -6.839
-13.777 -11.602 -2.217
-13.382 -10.818 -2.818
-17.193 -10.799 -6.335
-14.785 -14.153 -0.650
-21.748 -6.688 -15.597
-12.249 -11.214 -1.052
-13.776 -11.602 -2.217
-14.788 -14.153 -0.653
-13.246 -13.673 0.393
-13.163 -13.719 0.533
-18.332 -10.853 -7.432
-14.833 -14.156 -0.697
-14.789 -14.152 -0.654
-19.434 -10.662 -8.709
-12.252 -11.212 -1.056
-19.434 -10.662 -8.709
-12.902 -12.238 -0.701
-21.704 -6.656 -15.618
-14.776 -14.088 -0.724
-21.759 -6.686 -15.610
-13.143 -11.045 -2.150
-21.696 -6.657 -15.609
-21.696 -6.657 -15.609
-14.832 -14.156 -0.695
-13.777 -11.593 -2.226
-18.295 -10.847 -7.402
-12.251 -11.213 -1.055
-15.363 -10.151 -5.235
-14.787 -14.153 -0.651
-15.363 -10.151 -5.235
-14.787 -14.158 -0.644
-13.387 -10.814 -2.827
-12.620 -12.396 -0.287
-14.786 -14.155 -0.648
-13.610 -14.245 0.592
-16.849 -11.389 -5.882
-12.073 -11.617 -0.510
-14.704 -14.152 -0.566
-12.692 -12.350 -0.419
-14.786 -14.153 -0.650
-13.378 -10.821 -2.812
-13.775 -11.602 -2.215
-13.210 -11.924 -1.336
-12.079 -11.614 -0.519
-13.775 -11.602 -2.216
-13.378 -10.821 -2.812
-12.472 -11.599 -0.926
-17.729 -11.322 -6.626
-12.074 -11.616 -0.512
-12.074 -11.616 -0.512
-21.740 -6.689 -15.587
-13.775 -11.602 -2.215
-12.472 -11.599 -0.926
-18.296 -10.847 -7.403
-13.778 -11.601 -2.219
-13.162 -13.739 0.552
-16.434 -10.829 -5.562
-13.213 -11.923 -1.339
-13.778 -11.601 -2.219
-14.243 -14.127 -1.247
-14.788 -14.153 -0.652
-12.474 -11.598 -0.929
-19.147 -12.853 -7.008
-18.335 -10.854 -7.433
-15.155 -13.084 -2.199
-21.703 -6.656 -15.618
-14.832 -14.156 -0.696
-21.703 -6.657 -15.617
-21.758 -6.686 -15.610
-13.143 -11.045 -2.150
-11.546 -10.506 -1.108
-16.419 -11.443 -5.397
-21.696 -6.657 -15.609
-13.151 -13.751 0.576
-14.832 -14.156 -0.696
-11.546 -10.506 -1.108
-11.546 -10.506 -1.108
-21.696 -6.657 -15.608
-14.832 -14.156 -0.696
-12.473 -11.598 -0.928
-13.384 -10.816 -2.823
-14.832 -14.156 -0.696
-13.162 -13.723 0.538
-17.634 -11.325 -6.526
-14.788 -14.153 -0.652
-18.069 -10.919 -7.095
-12.249 -11.213 -1.052
-12.249 -11.213 -1.052
-21.560 -6.668 -15.467
-14.832 -14.156 -0.696
-11.547 -10.504 -1.111
-17.694 -11.338 -6.576
-16.860 -9.859 -7.004
-14.844 -14.118 -0.738
-12.344 -11.641 -0.756
-11.548 -10.504 -1.112
-12.659 -10.996 -1.674
-12.344 -11.641 -0.756
-15.158 -13.084 -2.202
-21.606 -6.697 -15.428
-12.621 -12.396 -0.287
-13.205 -11.923 -1.331
-13.385 -10.816 -2.824
-14.801 -14.162 -0.655
-12.136 -11.051 -1.132
-16.095 -11.572 -5.010
-14.792 -14.150 -0.659
-11.546 -10.507 -1.108
-13.385 -10.815 -2.825
-16.317 -11.432 -5.300
-13.386 -10.815 -2.825
-21.762 -6.684 -15.616
-16.429 -11.441 -5.410
-13.064 -11.026 -2.094
-14.800 -14.163 -0.652
-13.385 -10.815 -2.825
-17.933 -10.903 -6.976
-21.713 -6.653 -15.631
-14.185 -13.119 -1.114
-17.545 -11.342 -6.420
-13.482 -14.591 1.065
-13.479 -14.567 1.049
-13.387 -10.814 -2.828
-21.709 -6.654 -15.627
-21.765 -6.684 -15.620
-13.370 -10.802 -2.815
-13.064 -11.025 -2.094
-21.570 -6.665 -15.481
-13.916 -14.277 0.316
-17.751 -11.314 -6.655
-13.782 -11.601 -2.224
-13.388 -10.813 -2.830
-16.434 -11.440 -5.417
-13.388 -10.813 -2.830
-13.064 -11.026 -2.093
-11.558 -10.494 -1.133
-13.071 -11.020 -2.106
-14.760 -14.149 -0.627
-13.223 -11.900 -1.375
-19.171 -12.847 -7.039
-14.863 -14.141 -0.739
-12.092 -11.603 -0.544
-19.197 -12.845 -7.064
-12.092 -11.603 -0.544
-13.772 -12.082 -1.785
-16.211 -11.544 -5.222
-16.114 -11.531 -5.137
-17.784 -11.308 -6.695
-14.280 -11.443 -2.954
-11.555 -10.501 -1.122
-13.683 -14.548 0.817
-16.882 -9.851 -7.034
-13.155 -12.316 -0.905
-13.788 -11.598 -2.232
-16.941 -11.328 -6.028
-18.338 -10.811 -7.484
-13.399 -10.804 -2.850
-18.338 -10.811 -7.484
-11.555 -10.500 -1.124
-21.801 -6.673 -15.670
-13.074 -11.018 -2.110
-12.258 -11.199 -1.076
-14.863 -14.141 -0.738
-16.201 -11.545 -5.216
-14.808 -14.143 -0.681
-13.178 -13.706 0.506
-12.149 -12.402 0.186
-13.073 -11.019 -2.109
-21.795 -6.674 -15.661
-18.337 -10.811 -7.483
-13.373 -12.622 -0.792
-11.554 -10.501 -1.121
-9.683 -8.982 -0.752
-14.284 -11.408 -2.987
-12.393 -11.880 -0.529
-11.552 -10.503 -1.117
-14.841 -14.146 -0.714
-12.451 -12.127 -0.344
-13.152 -11.038 -2.166
-13.396 -10.806 -2.845
-13.789 -11.598 -2.235
-13.073 -11.019 -2.109
-13.789 -11.598 -2.235
-21.794 -6.674 -15.660
-13.396 -10.806 -2.844
-21.501 -6.700 -15.329
-12.769 -11.952 -0.874
-12.259 -11.198 -1.078
-14.288 -9.092 -5.233
-14.771 -14.146 -0.642
-18.113 -10.882 -7.178
-8.718 -8.822 0.044
-8.717 -8.836 0.056
-18.113 -10.882 -7.178
-21.795 -6.674 -15.662
-8.755 -8.769 -0.045
-21.795 -6.674 -15.662
-14.775 -14.151 -0.640
-13.073 -11.019 -2.109
-11.553 -10.502 -1.119
-14.803 -14.145 -0.675
-11.553 -10.502 -1.119
-14.283 -11.409 -2.985
-12.059 -11.632 -0.481
-17.967 -10.870 -7.046
-13.399 -10.804 -2.850
-21.800 -6.673 -15.668
-13.399 -10.804 -2.850
-13.289 -13.754 0.434
-21.800 -6.673 -15.668
-13.399 -10.804 -2.850
-13.399 -10.804 -2.850
-13.790 -11.598 -2.236
-13.399 -10.804 -2.850
-12.670 -10.983 -1.699
-17.967 -10.870 -7.046
-12.682 -11.041 -1.683
-16.630 -11.392 -5.656
-13.499 -9.141 -4.493
-13.192 -11.848 -1.389
-13.790 -11.598 -2.235
-13.396 -10.806 -2.845
-16.513 -11.385 -5.540
-17.673 -11.328 -6.550
-13.396 -10.806 -2.845
-14.159 -11.018 -3.152
-13.397 -10.806 -2.846
-16.831 -11.563 -5.749
-12.490 -11.586 -0.956
-13.380 -10.793 -2.834
-21.799 -6.674 -15.666
-13.398 -10.805 -2.848
-21.799 -6.673 -15.666
-17.690 -11.332 -6.575
-13.790 -11.598 -2.236
-8.791 -8.747 -0.102
-12.865 -12.315 -0.590
-16.098 -11.533 -5.118
-8.791 -8.743 -0.106
-17.675 -11.332 -6.562
-12.259 -11.198 -1.077
-14.726 -14.142 -0.598
-14.726 -14.142 -0.598
-13.398 -10.805 -2.847
-14.771 -14.146 -0.642
-18.118 -10.881 -7.185
-12.633 -12.385 -0.310
-13.380 -10.793 -2.834
-13.790 -11.598 -2.235
-13.398 -10.805 -2.848
-13.073 -11.019 -2.109
-12.258 -11.199 -1.075
-13.485 -14.586 1.058
-13.790 -11.598 -2.235
-12.094 -11.602 -0.546
-13.073 -11.019 -2.109
-21.795 -6.674 -15.661
-17.674 -11.333 -6.561
-13.517 -9.135 -4.517
-12.489 -11.586 -0.956
-13.486 -13.874 0.132
-13.214 -11.924 -1.339
-18.112 -10.882 -7.177
-13.073 -11.019 -2.109
-12.258 -11.199 -1.076
-21.795 -6.674 -15.661
-17.689 -11.332 -6.574
-9.882 -8.836 -1.136
-12.030 -11.668 -0.418
-14.693 -14.150 -0.557
-13.222 -13.665 0.410
-9.094 -8.528 -0.622
-15.966 -11.612 -4.895
-12.764 -11.977 -0.851
-9.164 -8.884 -0.339
-12.766 -11.944 -0.880
-13.396 -10.806 -2.845
-16.943 -11.576 -5.853
-14.814 -14.156 -0.674
-13.789 -11.598 -2.235
-12.093 -11.602 -0.546
-12.093 -11.602 -0.546
-13.497 -11.283 -2.247
-13.219 -11.916 -1.352
-13.380 -10.793 -2.834
-12.489 -11.586 -0.956
-13.398 -10.805 -2.848
-17.575 -11.338 -6.456
-12.096 -11.601 -0.549
-15.417 -10.133 -5.305
-12.873 -12.320 -0.593
-16.101 -11.528 -5.123
-12.095 -11.601 -0.549
-12.095 -11.601 -0.549
-13.237 -11.914 -1.373
-12.095 -11.601 -0.549
-13.380 -10.793 -2.834
-12.489 -11.586 -0.956
-21.799 -6.674 -15.666
-8.755 -8.770 -0.044
-14.775 -14.151 -0.641
-9.882 -8.836 -1.136
-19.155 -12.871 -7.001
-13.073 -11.019 -2.109
-19.053 -12.882 -6.878
-13.790 -11.598 -2.235
-13.225 -11.915 -1.359
-12.094 -11.602 -0.546
-13.939 -11.428 -2.523
-21.795 -6.674 -15.661
-14.276 -14.774 0.081
-17.783 -11.309 -6.695
-13.221 -11.901 -1.365
-14.818 -14.144 -0.692
-12.093 -11.602 -0.545
-13.222 -11.912 -1.359
-17.684 -11.314 -6.590
-14.816 -14.141 -0.689
-13.380 -10.793 -2.834
-13.398 -10.804 -2.848
-12.259 -11.198 -1.077
-16.105 -11.530 -5.132
-13.073 -11.019 -2.109
-12.258 -11.199 -1.076
-14.726 -14.143 -0.597
-13.073 -11.019 -2.109
-21.795 -6.674 -15.661
-12.766 -11.941 -0.883
-9.712 -9.233 -0.469
-13.167 -13.748 0.555
-16.077 -11.620 -5.002
-14.693 -14.151 -0.556
-10.372 -8.336 -2.281
-14.775 -14.152 -0.640
-16.076 -11.620 -5.001
-16.942 -11.576 -5.850
-14.327 -14.653 -0.200
-14.726 -14.143 -0.597
-21.794 -6.674 -15.659
-8.050 -8.403 0.018
-21.794 -6.674 -15.659
-14.775 -14.153 -0.639
-8.755 -8.770 -0.044
-12.030 -11.668 -0.417
-12.931 -11.693 -1.318
-13.288 -10.993 -2.365
-14.770 -14.146 -0.641
-13.395 -10.807 -2.843
-16.520 -11.381 -5.552
-12.091 -11.604 -0.542
-9.189 -8.875 -0.371
-13.207 -11.908 -1.348
-12.091 -11.603 -0.541
-15.303 -10.160 -5.168
-12.091 -11.603 -0.542
-12.091 -11.604 -0.542
-13.293 -13.663 0.336
-17.779 -11.310 -6.688
-14.725 -14.142 -0.597
-14.725 -14.143 -0.596
-12.090 -11.604 -0.541
-13.789 -11.598 -2.235
-16.458 -10.798 -5.625
-14.726 -14.143 -0.598
-12.093 -11.602 -0.545
-17.783 -11.309 -6.693
-12.093 -11.602 -0.545
-12.093 -11.602 -0.546
-14.818 -14.144 -0.692
-17.673 -11.334 -6.558
-14.819 -14.144 -0.692
-14.727 -14.143 -0.599
-14.324 -14.695 -0.082
-21.796 -6.674 -15.662
-12.030 -11.668 -0.418
-13.220 -13.665 0.415
-12.843 -11.410 -1.451
-14.843 -14.151 -0.712
-14.809 -14.149 -0.676
-19.224 -12.853 -7.092
-8.793 -8.749 -0.102
-14.717 -14.146 -0.584
-12.084 -11.604 -0.534
-13.223 -11.916 -1.356
-18.087 -10.887 -7.148
-13.396 -10.807 -2.844
-13.396 -10.807 -2.844
-12.480 -11.588 -0.945
-12.082 -11.604 -0.533
-14.716 -14.147 -0.583
-12.082 -11.606 -0.531
-12.768 -12.291 -0.517
-12.851 -12.353 -0.540
-16.422 -10.806 -5.583
-11.893 -11.245 -0.666
-13.623 -11.839 -1.853
-21.791 -6.678 -15.653
-18.088 -10.887 -7.149
-16.623 -11.398 -5.639
-14.715 -14.147 -0.583
-13.397 -10.807 -2.844
-16.512 -11.389 -5.532
-14.715 -14.147 -0.583
-17.757 -11.318 -6.660
-12.081 -11.606 -0.530
-11.846 -12.588 0.644
-15.364 -10.150 -5.238
-17.757 -11.318 -6.660
-11.797 -12.565 0.723
-13.201 -11.919 -1.331
-21.791 -6.678 -15.654
-11.842 -12.769 0.857
-13.785 -11.597 -2.231
-13.397 -10.807 -2.845
-12.257 -11.201 -1.072
-14.808 -14.148 -0.677
-16.423 -10.806 -5.583
-14.716 -14.147 -0.583
-13.070 -11.021 -2.104
-12.636 -11.025 -1.653
-12.636 -11.025 -1.653
-11.481 -10.492 -1.061
-14.697 -13.458 -2.876
-14.279 -11.407 -2.983
-14.279 -11.408 -2.982
-14.740 -14.149 -0.606
-16.939 -11.581 -5.839
-13.070 -11.021 -2.105
-16.619 -11.399 -5.634
-21.748 -6.697 -15.630
-13.162 -13.750 0.563
-16.624 -11.398 -5.640
-11.792 -12.562 0.725
-14.857 -13.690 -2.568
-12.843 -12.388 -0.498
-11.797 -12.562 0.720
-12.081 -11.606 -0.529
-16.097 -11.537 -5.112
-9.184 -8.873 -0.369
-11.693 -12.558 0.820
-11.692 -12.549 0.805
-13.137 -13.683 0.499
-14.716 -14.147 -0.583
-12.763 -12.347 -0.458
-13.201 -11.919 -1.331
-13.300 -13.675 0.340
-14.862 -14.142 -0.737
-13.205 -11.918 -1.336
-13.205 -11.919 -1.335
-12.089 -11.604 -0.539
-17.775 -11.307 -6.685
-17.777 -11.311 -6.687
-14.862 -14.142 -0.737
-13.177 -13.717 0.517
-13.205 -11.927 -1.328
-13.146 -13.691 0.511
-11.892 -11.245 -0.665
-14.865 -13.722 -2.503
-13.980 -15.164 0.973
-8.985 -8.862 -0.931
-12.089 -11.604 -0.539
-15.370 -10.148 -5.246
-8.790 -8.752 -0.097
-13.177 -13.716 0.517
-12.423 -13.168 0.557
-13.070 -11.020 -2.105
-12.686 -11.042 -1.686
-13.396 -10.807 -2.843
-13.396 -10.808 -2.843
-13.366 -10.765 -2.849
-12.686 -11.042 -1.686
-13.788 -11.586 -2.245
-12.091 -11.603 -0.543
-13.223 -11.916 -1.357
-15.397 -10.139 -5.279
-13.380 -10.794 -2.833
-12.487 -11.587 -0.953
-11.893 -11.244 -0.667
-12.984 -11.902 -1.128
-13.212 -11.919 -1.343
-12.090 -11.604 -0.541
-11.695 -12.553 0.813
-12.391 -12.953 0.475
-14.725 -14.140 -0.600
-21.800 -6.675 -15.667
-11.724 -12.646 0.875
-12.029 -11.668 -0.417
-14.693 -14.151 -0.556
-17.697 -11.336 -6.576
-10.591 -8.976 -1.615
-14.966 -9.645 -5.412
-13.678 -14.291 0.571
-14.830 -14.149 -0.697
-12.029 -11.668 -0.416
-13.106 -13.692 0.553
-12.997 -13.910 0.863
-12.378 -12.730 0.294
-12.029 -11.668 -0.416
-16.632 -11.395 -5.651
-10.415 -8.333 -2.328
-11.698 -12.571 0.827
-12.089 -11.604 -0.540
-14.724 -14.139 -0.601
-13.205 -11.918 -1.336
-14.613 -14.143 -0.484
-12.089 -11.604 -0.539
-14.716 -14.122 -0.604
-14.816 -14.144 -0.690
-13.205 -11.918 -1.336
-16.206 -11.547 -5.215
-12.089 -11.604 -0.539
-12.120 -11.604 -0.572
-12.089 -11.604 -0.539
-12.978 -11.900 -1.125
-11.779 -10.691 -1.483
-11.892 -11.245 -0.665
-15.369 -10.148 -5.246
-13.205 -11.918 -1.336
-19.246 -12.853 -7.112
-10.415 -8.334 -2.328
-15.369 -10.148 -5.246
-12.089 -11.604 -0.539
-17.777 -11.311 -6.687
-12.089 -11.604 -0.539
-12.427 -13.027 0.497
-15.369 -10.148 -5.246
-14.725 -14.143 -0.596
-12.627 -12.978 0.238
-9.103 -9.645 0.506
-19.194 -12.846 -7.060
-12.089 -11.604 -0.540
-12.089 -11.604 -0.540
-12.089 -11.604 -0.540
-11.892 -11.245 -0.665
-12.121 -11.604 -0.573
-19.194 -12.846 -7.060
-12.121 -11.603 -0.573
-12.036 -12.645 0.551
-12.923 -12.271 -0.702
-12.037 -12.678 0.583
-14.724 -14.143 -0.596
-12.037 -12.677 0.583
-13.200 -11.935 -1.321
-10.003 -10.440 0.438
-14.724 -14.143 -0.596
-12.089 -11.604 -0.540
-19.246 -12.853 -7.112
-14.683 -13.466 -2.838
-12.037 -12.677 0.583
-12.651 -12.968 0.205
-9.437 -9.494 0.052
-12.005 -12.722 0.665
-12.567 -12.977 0.302
-13.205 -11.918 -1.336
-11.927 -11.301 -0.920
-12.212 -10.701 -1.699
-12.154 -10.709 -1.630
-10.654 -10.982 0.284
-11.927 -11.301 -0.920
-11.892 -11.305 -0.881
-12.154 -10.709 -1.630
-11.140 -10.787 -0.615
-11.217 -10.796 -0.686
-11.927 -11.301 -0.920
-12.212 -10.701 -1.699
-11.217 -10.796 -0.686
-12.376 -10.689 -1.878
-12.154 -10.709 -1.630
-11.217 -10.796 -0.686
-11.927 -11.301 -0.920
-11.217 -10.796 -0.686
-11.217 -10.796 -0.686
-12.212 -10.701 -1.699
-12.212 -10.701 -1.699
-12.154 -10.709 -1.630
-10.874 -11.014 0.078
-12.376 -10.689 -1.877
-11.950 -11.315 -0.910
-11.927 -11.301 -0.920
-12.212 -10.701 -1.699
-12.212 -10.701 -1.699
-12.212 -10.701 -1.699
-11.496 -10.669 -0.862
-12.078 -10.715 -1.545
-11.892 -11.305 -0.881
-11.892 -11.305 -0.881
-10.646 -10.981 0.290
-12.212 -10.701 -1.699
-11.927 -11.301 -0.920
-12.212 -10.701 -1.699
-11.927 -11.301 -0.920
-11.927 -11.301 -0.920
-12.376 -10.689 -1.878
-11.927 -11.301 -0.920
-12.212 -10.701 -1.699
-11.927 -11.301 -0.920
-12.212 -10.701 -1.699
-11.951 -11.315 -0.911
-12.154 -10.709 -1.630
-11.804 -10.691 -1.153
-11.367 -10.316 -1.098
-12.182 -10.718 -1.650
-12.182 -10.718 -1.650
-11.921 -11.314 -0.901
-11.921 -11.314 -0.901
-8.526 -8.352 -0.223
-11.886 -11.318 -0.862
-11.740 -10.687 -1.094
-12.178 -10.722 -1.643
-12.178 -10.722 -1.643
-10.639 -10.998 0.314
-11.988 -10.745 -1.422
-11.152 -10.800 -0.612
-11.920 -11.317 -0.897
-11.988 -10.737 -1.433
-11.885 -11.321 -0.858
-11.885 -11.321 -0.858
-11.890 -11.305 -0.880
-11.951 -11.316 -0.910
-12.212 -10.701 -1.699
-11.817 -10.693 -1.165
-11.920 -11.317 -0.897
-11.885 -11.321 -0.858
-11.152 -10.800 -0.612
-12.179 -10.722 -1.644
-10.917 -11.063 0.084
-11.152 -10.800 -0.612
-10.640 -10.998 0.312
-12.046 -10.737 -1.491
-11.740 -10.687 -1.094
-10.530 -9.179 -1.418
-11.921 -11.314 -0.901
-12.253 -10.712 -1.728
-10.641 -10.994 0.307
-11.529 -10.684 -0.880
-11.922 -11.313 -0.903
-11.911 -11.329 -0.856
-11.922 -11.313 -0.903
-12.055 -10.732 -1.505
-12.253 -10.712 -1.728
-11.997 -10.740 -1.437
-11.911 -11.329 -0.855
-11.149 -10.797 -0.613
-11.451 -10.829 -0.884
-12.087 -10.724 -1.547
-12.188 -10.717 -1.658
-12.054 -10.732 -1.505
-11.255 -10.810 -0.693
-12.188 -10.717 -1.658
-12.188 -10.717 -1.658
-12.054 -10.732 -1.505
-11.922 -11.313 -0.903
-11.451 -10.829 -0.884
-8.480 -8.348 -0.180
-12.285 -10.588 -1.855
-12.184 -10.719 -1.651
-12.184 -10.719 -1.651
-11.367 -10.315 -1.098
-10.867 -11.027 0.097
-11.816 -10.693 -1.165
-11.885 -11.321 -0.858
-11.920 -11.317 -0.897
-10.868 -11.028 0.097
-11.920 -11.317 -0.896
-12.046 -10.737 -1.491
-11.920 -11.317 -0.897
-12.179 -10.722 -1.644
-12.179 -10.722 -1.644
-11.367 -10.316 -1.098
-8.526 -8.352 -0.222
-12.182 -10.718 -1.650
-11.817 -10.693 -1.165
-11.817 -10.693 -1.165
-12.178 -10.722 -1.643
-11.152 -10.800 -0.612
-10.593 -9.181 -1.476
-11.921 -11.314 -0.901
-10.869 -11.025 0.093
-11.367 -10.316 -1.097
-12.049 -10.733 -1.497
-11.817 -10.693 -1.165
-10.884 -11.084 0.134
-11.541 -10.688 -0.889
-11.913 -11.319 -0.887
-12.052 -10.733 -1.501
-12.350 -10.706 -1.833
-12.186 -10.718 -1.655
-11.451 -10.829 -0.884
-11.264 -10.314 -0.995
-11.451 -10.829 -0.884
-11.921 -11.315 -0.900
-12.050 -10.734 -1.498
-12.184 -10.719 -1.651
-12.184 -10.719 -1.651
-11.264 -10.314 -0.995
-12.180 -10.719 -1.647
-11.315 -10.810 -0.762
-11.945 -11.329 -0.891
-11.257 -10.811 -0.693
-11.536 -10.686 -0.885
-12.184 -10.719 -1.651
-12.184 -10.719 -1.651
-11.945 -11.329 -0.891
-11.292 -10.308 -1.029
-11.817 -10.693 -1.165
-12.178 -10.721 -1.643
-12.178 -10.722 -1.643
-12.178 -10.722 -1.643
-12.178 -10.722 -1.643
-12.178 -10.722 -1.643
-12.253 -10.712 -1.728
-10.942 -11.110 0.104
-12.187 -10.717 -1.657
-11.315 -10.810 -0.761
-10.941 -11.112 0.106
-12.049 -10.734 -1.496
-8.890 -9.122 0.185
-12.049 -10.734 -1.497
-11.817 -10.692 -1.165
-11.885 -11.321 -0.858
-11.542 -10.688 -0.890
-12.179 -10.722 -1.644
-10.940 -11.114 0.109
-12.178 -10.722 -1.643
-10.940 -11.113 0.109
-12.178 -10.722 -1.643
-11.292 -10.308 -1.029
-11.921 -11.314 -0.901
-11.315 -10.810 -0.761
-11.264 -10.314 -0.994
-12.180 -10.719 -1.647
-11.151 -10.799 -0.613
-11.451 -10.829 -0.884
-12.347 -10.707 -1.830
-12.184 -10.719 -1.651
-11.315 -10.810 -0.762
-12.184 -10.719 -1.651
-10.453 -9.692 -0.831
-12.184 -10.719 -1.651
-11.921 -11.315 -0.900
-12.308 -10.700 -1.793
-11.266 -10.313 -0.997
-11.052 -10.854 -0.231
-11.906 -11.330 -0.850
-12.305 -10.704 -1.790
-11.906 -11.330 -0.850
-11.906 -11.330 -0.850
-12.184 -10.717 -1.654
-11.539 -10.685 -0.889
-10.942 -11.109 0.103
-10.869 -11.025 0.094
-11.292 -10.308 -1.029
-10.943 -11.110 0.103
-12.051 -10.733 -1.500
-11.921 -11.314 -0.901
-11.921 -11.314 -0.901
-10.869 -11.025 0.093
-11.816 -10.693 -1.165
-11.292 -10.308 -1.029
-11.265 -10.313 -0.996
-11.265 -10.313 -0.996
-11.940 -11.328 -0.887
-12.087 -10.724 -1.546
-11.266 -10.313 -0.997
-12.130 -10.725 -1.590
-11.266 -10.313 -0.997
-12.184 -10.717 -1.654
-11.539 -10.685 -0.889
-11.149 -10.797 -0.613
-12.188 -10.717 -1.658
-10.184 -10.176 -0.084
-11.706 -10.954 -0.910
-7.904 -7.351 -0.590
-10.868 -11.027 0.096
-11.612 -10.692 -0.956
-8.525 -8.352 -0.221
-11.944 -11.330 -0.889
-12.181 -10.721 -1.647
-12.087 -10.724 -1.544
-11.817 -10.693 -1.165
-12.178 -10.722 -1.643
-11.908 -11.333 -0.848
-11.913 -11.319 -0.887
-12.128 -10.726 -1.586
-10.869 -11.025 0.094
-11.887 -11.318 -0.862
-11.367 -10.316 -1.098
-12.049 -10.733 -1.497
-10.942 -11.109 0.103
-11.909 -11.331 -0.852
-10.868 -11.026 0.095
-11.887 -11.318 -0.862
-11.913 -11.319 -0.888
-11.532 -10.684 -0.883
-11.265 -10.313 -0.996
-10.943 -11.110 0.103
-11.913 -11.319 -0.888
-11.911 -11.330 -0.855
-11.367 -10.316 -1.098
-12.182 -10.718 -1.651
-11.817 -10.693 -1.165
-10.867 -11.029 0.098
-12.178 -10.722 -1.643
-11.257 -10.814 -0.691
-11.942 -11.332 -0.886
-10.941 -11.113 0.108
-11.315 -10.810 -0.761
-11.257 -10.812 -0.693
-11.921 -11.315 -0.900
-11.292 -10.308 -1.029
-7.904 -7.351 -0.590
-10.942 -11.110 0.104
-11.803 -10.691 -1.152
-11.367 -10.316 -1.097
-10.942 -11.111 0.105
-11.886 -11.318 -0.862
-11.816 -10.693 -1.164
-12.178 -10.722 -1.643
-11.920 -11.317 -0.897
-11.552 -10.689 -0.898
-11.315 -10.810 -0.761
-11.817 -10.693 -1.165
-12.178 -10.722 -1.643
-11.391 -10.831 -0.812
-11.942 -11.331 -0.886
-10.941 -11.113 0.109
-12.087 -10.724 -1.546
-11.539 -10.685 -0.889
-10.965 -10.531 -0.492
-11.602 -10.689 -0.948
-11.887 -11.317 -0.863
-10.869 -11.025 0.092
-12.188 -10.717 -1.659
-12.352 -10.704 -1.839
-12.055 -10.732 -1.505
-12.087 -10.724 -1.547
-11.922 -11.313 -0.903
-10.942 -11.110 0.103
-10.869 -11.026 0.094
-12.187 -10.717 -1.657
-12.130 -10.725 -1.590
-11.817 -10.693 -1.165
-10.451 -9.694 -0.828
-11.292 -10.308 -1.029
-12.182 -10.718 -1.651
-12.087 -10.724 -1.547
-11.539 -10.685 -0.889
-11.944 -11.327 -0.892
-10.942 -11.111 0.104
-11.149 -10.797 -0.613
-11.256 -10.810 -0.694
-11.946 -11.327 -0.894
-11.539 -10.685 -0.889
-11.602 -10.689 -0.948
-11.817 -10.693 -1.165
-11.908 -11.333 -0.848
-11.552 -10.689 -0.898
-11.913 -11.319 -0.887
-12.147 -10.709 -1.625
-10.649 -10.984 0.288
-11.815 -10.692 -1.164
-10.867 -11.028 0.098
-10.185 -10.176 -0.084
-12.184 -10.719 -1.651
-12.050 -10.734 -1.498
-12.184 -10.719 -1.651
-11.315 -10.810 -0.762
-10.941 -11.110 0.104
-11.921 -11.315 -0.900
-10.641 -10.996 0.310
-12.184 -10.719 -1.651
-11.910 -11.331 -0.853
-10.941 -11.112 0.107
-11.264 -10.314 -0.995
-10.451 -9.694 -0.827
-11.921 -11.315 -0.900
-12.184 -10.719 -1.651
-11.921 -11.315 -0.900
-12.126 -10.728 -1.582
-11.536 -10.686 -0.885
-11.536 -10.686 -0.885
-11.817 -10.693 -1.165
-11.263 -10.314 -0.993
-11.920 -11.317 -0.897
-11.615 -10.693 -0.958
-11.920 -11.317 -0.897
-12.179 -10.722 -1.644
-10.940 -11.095 0.091
-12.178 -10.722 -1.643
-12.045 -10.737 -1.490
-12.178 -10.722 -1.643
-11.615 -10.694 -0.957
-10.940 -11.114 0.110
-12.045 -10.737 -1.489
-10.766 -9.724 -1.119
-11.817 -10.692 -1.165
-12.178 -10.722 -1.643
-11.920 -11.317 -0.897
-11.263 -10.315 -0.992
-11.904 -11.334 -0.844
-11.263 -10.315 -0.992
-12.175 -10.722 -1.640
-12.175 -10.722 -1.640
-11.263 -10.315 -0.992
-11.913 -11.319 -0.887
-10.942 -11.113 0.107
-11.605 -10.691 -0.950
-11.803 -10.692 -1.152
-11.263 -10.315 -0.992
-11.263 -10.315 -0.992
-11.904 -11.334 -0.844
-12.253 -10.712 -1.728
-10.942 -11.109 0.103
-11.602 -10.690 -0.947
-10.869 -11.024 0.092
-11.292 -10.308 -1.029
-7.394 -8.477 1.033
-10.657 -10.514 -0.172
-12.253 -10.712 -1.728
-11.867 -11.307 -0.837
-12.186 -10.718 -1.654
-11.350 -10.694 -0.865
-12.253 -10.712 -1.727
-11.945 -11.327 -0.893
-12.253 -10.712 -1.728
-11.895 -11.416 -0.808
-10.641 -10.995 0.308
-11.265 -10.313 -0.996
-10.544 -9.090 -1.433
-14.284 -11.407 -2.988
-10.676 -8.921 -2.378
-9.770 -8.487 -1.309
-13.321 -11.746 -1.670
-9.679 -9.001 -0.729
-16.889 -9.847 -7.044
-10.546 -9.087 -1.438
-16.889 -9.849 -7.043
-13.324 -11.753 -1.660
-10.133 -8.272 -1.926
-8.655 -8.449 -0.248
-10.676 -8.921 -2.378
-10.711 -9.160 -1.530
-13.323 -11.760 -1.657
-10.546 -9.087 -1.438
-14.284 -11.406 -2.989
-10.711 -9.160 -1.530
-10.546 -9.087 -1.437
-10.133 -8.272 -1.926
-10.547 -9.086 -1.440
-16.869 -9.857 -7.000
-8.912 -8.194 -0.782
-8.912 -8.191 -0.784
-8.912 -8.194 -0.782
-13.323 -11.752 -1.662
-9.489 -9.320 -0.200
-8.912 -8.190 -0.786
-10.545 -9.087 -1.436
-10.711 -9.160 -1.530
-8.912 -8.189 -0.785
-9.041 -8.512 -0.564
-10.482 -9.262 -1.194
-10.549 -9.102 -1.427
-10.546 -9.087 -1.437
-8.913 -8.634 -0.307
-10.546 -9.087 -1.437
-12.346 -11.631 -0.769
-16.889 -9.863 -7.028
-11.174 -11.744 0.534
-8.912 -8.197 -0.779
-10.981 -10.058 -0.952
-9.489 -9.321 -0.200
-16.889 -9.849 -7.043
-9.392 -9.380 -0.040
-8.913 -8.196 -0.781
-10.545 -9.088 -1.436
-10.545 -9.088 -1.436
-16.876 -9.793 -7.103
-10.546 -9.087 -1.437
-13.198 -11.565 -1.696
-10.736 -9.091 -1.619
-12.379 -11.924 -0.555
-8.955 -8.166 -0.851
-9.124 -8.442 -0.833
-10.736 -9.091 -1.619
-8.261 -8.387 0.096
-8.955 -8.167 -0.850
-8.955 -8.170 -0.848
-10.835 -10.100 -0.773
-10.204 -9.893 -0.361
-10.695 -9.151 -1.510
-10.695 -9.151 -1.510
-8.975 -8.183 -0.856
-8.763 -8.157 -0.619
-8.658 -8.495 -0.218
-8.272 -8.420 0.115
-10.657 -9.146 -1.477
-10.587 -9.130 -1.423
-9.900 -9.910 -0.042
-12.372 -11.932 -0.539
-8.967 -8.173 -0.856
-8.967 -8.174 -0.856
-10.248 -8.612 -2.049
-10.645 -9.162 -1.450
-8.255 -8.385 0.099
-8.837 -8.160 -0.696
-10.019 -8.765 -1.375
-8.967 -8.173 -0.857
-9.126 -8.894 -0.286
-9.078 -8.514 -0.599
-8.763 -8.157 -0.619
-12.370 -11.936 -0.534
-10.990 -10.057 -0.962
-10.677 -9.057 -1.596
-9.745 -8.346 -1.449
-10.815 -10.099 -0.754
-9.125 -8.967 -0.216
-10.991 -10.057 -0.962
-12.379 -11.925 -0.554
-10.738 -9.090 -1.622
-11.959 -11.689 -0.328
-10.080 -9.929 -0.170
-12.379 -11.925 -0.554
-12.379 -11.924 -0.555
-10.677 -9.057 -1.596
-9.130 -8.922 -0.266
-11.641 -11.473 -0.216
-8.955 -8.169 -0.848
-10.815 -10.099 -0.754
-12.373 -11.925 -0.548
-8.934 -8.162 -0.834
-9.136 -8.452 -0.834
-11.834 -10.491 -1.435
-11.962 -11.689 -0.331
-9.078 -8.513 -0.600
-9.128 -8.925 -0.262
-10.009 -8.760 -1.368
-7.860 -7.458 -0.454
-9.096 -8.450 -0.798
-10.815 -10.099 -0.754
-8.935 -8.166 -0.829
-12.725 -12.221 -0.602
-8.935 -8.167 -0.829
-8.248 -8.485 0.192
-12.373 -11.928 -0.544
-11.959 -11.690 -0.327
-9.078 -8.514 -0.599
-9.128 -8.917 -0.271
-10.835 -10.100 -0.773
-10.587 -9.130 -1.423
-10.990 -10.057 -0.962
-12.379 -11.924 -0.555
-17.691 -10.918 -6.877
-12.379 -11.927 -0.552
-9.125 -8.442 -0.834
-10.815 -10.099 -0.754
-17.546 -11.029 -6.621
-17.434 -11.014 -6.522
-8.967 -8.170 -0.860
-10.587 -9.130 -1.423
-13.660 -13.902 0.127
-10.587 -9.130 -1.423
-9.999 -8.702 -1.419
-7.818 -7.441 -0.428
-11.962 -11.689 -0.332
-9.986 -10.062 0.026
-7.623 -7.609 -0.061
-8.611 -9.234 0.564
-9.486 -8.421 -1.121
-9.096 -8.450 -0.798
-17.546 -11.029 -6.621
-12.377 -11.924 -0.553
-7.720 -7.739 -0.014
-8.392 -8.503 0.067
-9.129 -8.920 -0.267
-10.991 -10.057 -0.962
-11.959 -11.690 -0.327
-14.957 -9.319 -5.732
-11.959 -11.689 -0.327
-17.691 -10.918 -6.877
-11.959 -11.689 -0.328
-10.565 -10.186 -0.452
-10.548 -10.164 -0.444
-17.466 -10.997 -6.570
-10.815 -10.099 -0.754
-17.547 -11.029 -6.622
-9.219 -8.607 -0.740
-8.661 -8.499 -0.218
-8.718 -8.820 0.042
-12.867 -13.429 0.485
-9.688 -9.804 0.076
-10.815 -10.099 -0.754
-9.018 -8.513 -0.538
-12.373 -11.923 -0.548
-17.096 -10.595 -6.646
-10.990 -10.057 -0.962
-17.691 -10.918 -6.877
-10.835 -10.100 -0.773
-10.677 -9.057 -1.596
-10.675 -9.061 -1.592
-17.713 -10.923 -6.894
-16.163 -9.946 -6.223
-10.981 -10.058 -0.952
-14.284 -11.406 -2.989
-14.218 -11.606 -2.887
-10.037 -9.889 -0.179
-10.816 -10.095 -0.758
-9.986 -10.060 0.025
-9.958 -9.961 -0.013
-11.842 -10.491 -1.443
-11.842 -10.491 -1.443
-9.986 -10.061 0.022
-7.865 -7.456 -0.461
-9.086 -8.690 -0.615
-10.453 -9.166 -1.255
-10.011 -9.959 -0.092
-11.842 -10.491 -1.443
-8.224 -8.473 0.188
-8.913 -8.634 -0.306
-8.912 -8.191 -0.784
-9.123 -8.442 -0.833
-17.706 -10.914 -6.895
-10.981 -10.058 -0.952
-17.654 -10.922 -6.838
-10.835 -10.096 -0.777
-14.278 -11.407 -2.981
-13.317 -11.748 -1.662
-12.053 -11.631 -0.476
-17.561 -11.026 -6.638
-10.816 -10.095 -0.758
-9.134 -8.452 -0.832
-10.816 -10.095 -0.758
-8.890 -8.194 -0.758
-10.557 -10.187 -0.443
-17.480 -10.994 -6.588
-7.832 -7.436 -0.447
-11.842 -10.491 -1.443
-10.454 -9.166 -1.256
-10.816 -10.095 -0.758
-7.785 -7.459 -0.376
-8.325 -8.489 0.133
-8.521 -8.347 -0.290
-10.816 -10.095 -0.758
-10.076 -10.020 -0.069
-17.497 -11.024 -6.577
-9.970 -10.001 0.012
-11.842 -10.491 -1.443
-8.781 -8.038 -0.762
-10.816 -10.095 -0.758
-14.277 -11.412 -2.977
-10.816 -10.095 -0.758
-13.317 -11.735 -1.674
-10.361 -9.234 -1.097
-10.835 -10.096 -0.777
-11.842 -10.491 -1.443
-10.816 -10.095 -0.758
-10.816 -10.095 -0.758
-10.816 -10.095 -0.758
-9.134 -8.452 -0.833
-9.095 -8.450 -0.797
-10.063 -10.036 -0.047
-12.785 -12.129 -0.703
-10.816 -10.095 -0.758
-10.580 -10.187 -0.466
-8.932 -8.200 -0.796
-9.108 -8.446 -0.814
-8.981 -8.513 -0.502
-10.836 -10.096 -0.777
-8.988 -8.786 -0.443
-10.981 -10.058 -0.952
-9.100 -8.943 -0.215
-10.816 -10.095 -0.758
-10.981 -10.058 -0.952
-11.002 -10.059 -0.973
-10.816 -10.095 -0.758
-9.123 -8.748 -0.604
-10.816 -10.095 -0.758
-17.654 -10.921 -6.837
-10.816 -10.095 -0.758
-8.799 -8.170 -0.645
-9.910 -9.835 -0.121
-12.052 -11.632 -0.475
-10.981 -10.058 -0.952
-6.482 -6.966 0.441
-10.816 -10.095 -0.758
-13.315 -11.752 -1.653
-12.110 -12.390 0.206
-17.718 -10.923 -6.899
-10.599 -9.122 -1.453
-10.816 -10.095 -0.758
-12.053 -11.630 -0.478
-10.098 -10.018 -0.102
-10.816 -10.095 -0.758
-12.053 -11.631 -0.478
-10.816 -10.095 -0.758
-10.212 -9.955 -0.319
-9.821 -9.794 -0.068
-8.562 -8.511 -0.137
-10.981 -10.058 -0.952
-10.816 -10.095 -0.758
-7.865 -7.457 -0.460
-17.560 -11.026 -6.638
-10.547 -9.086 -1.439
-9.997 -9.950 -0.097
-10.912 -10.451 -0.502
-12.053 -11.632 -0.476
-14.000 -14.000 -0.132
-10.816 -10.095 -0.758
-11.842 -10.491 -1.443
-10.816 -10.095 -0.758
-10.816 -10.095 -0.758
-10.835 -10.096 -0.777
-10.816 -10.095 -0.758
-9.134 -8.452 -0.833
-8.276 -8.490 0.185
-8.970 -8.634 -0.365
-10.912 -10.451 -0.502
-17.717 -10.923 -6.898
-7.857 -7.439 -0.470