-12.721 -10.168 -2.586
-22.913 -7.125 -16.652
-22.744 -7.079 -16.483
-22.860 -7.137 -16.585
-22.860 -7.137 -16.585
-17.961 -9.194 -8.823
-22.845 -7.086 -16.580
-22.815 -7.143 -16.532
-17.351 -9.279 -8.167
-19.498 -5.146 -15.356
-22.812 -7.143 -16.528
-22.812 -7.143 -16.528
-22.796 -7.090 -16.557
-19.498 -5.146 -15.356
-22.796 -7.090 -16.557
-19.147 -9.859 -9.313
-10.905 -8.328 -2.718
-22.802 -7.145 -16.515
-22.802 -7.145 -16.515
-19.383 -5.218 -15.178
-22.813 -7.143 -16.529
-19.383 -5.218 -15.178
-22.813 -7.143 -16.529
-22.497 -7.077 -16.224
-19.245 -9.878 -9.391
-22.802 -7.145 -16.515
-10.136 -9.787 -0.357
-19.591 -5.246 -15.366
-19.379 -5.218 -15.174
-19.602 -5.246 -15.377
-19.602 -5.246 -15.377
-18.090 -9.216 -8.931
-22.806 -7.144 -16.520
-19.386 -5.218 -15.181
-19.501 -5.147 -15.359
-18.798 -9.989 -8.830
-10.076 -6.332 -3.788
-18.090 -9.216 -8.931
-17.269 -9.404 -7.955
-17.941 -9.205 -8.794
-19.599 -5.245 -15.375
-11.257 -11.023 -0.245
-22.811 -7.144 -16.526
-19.386 -5.218 -15.181
-10.887 -9.597 -1.309
-10.076 -6.331 -3.789
-19.245 -9.878 -9.391
-19.383 -5.218 -15.178
-22.641 -7.088 -16.397
-22.811 -7.143 -16.527
-19.604 -5.246 -15.380
-22.811 -7.143 -16.526
-16.191 -9.045 -7.463
-10.866 -8.371 -2.628
-19.601 -5.246 -15.377
-22.808 -7.144 -16.523
-10.649 -10.422 -0.232
-22.794 -7.091 -16.554
-11.525 -10.839 -0.711
-10.907 -8.327 -2.722
-16.299 -9.027 -7.593
-17.960 -9.194 -8.822
-22.806 -7.144 -16.520
-22.799 -7.090 -16.560
-19.500 -5.147 -15.358
-9.991 -10.134 0.145
-22.814 -7.143 -16.530
-22.814 -7.143 -16.530
-10.704 -10.611 -0.093
-22.497 -7.077 -16.224
-18.090 -9.216 -8.931
-10.075 -6.332 -3.788
-16.305 -9.026 -7.600
-22.806 -7.144 -16.520
-10.867 -8.371 -2.629
-19.604 -5.245 -15.380
-18.994 -5.148 -14.816
-19.244 -9.878 -9.390
-22.801 -7.145 -16.514
-16.175 -9.033 -7.456
-22.801 -7.145 -16.514
-9.649 -6.778 -3.484
-22.842 -7.087 -16.575
-11.525 -10.839 -0.712
-19.603 -5.246 -15.379
-10.653 -9.481 -1.174
-10.885 -9.598 -1.305
-17.569 -9.305 -8.318
-10.721 -10.574 -0.147
-13.798 -6.420 -7.526
-19.062 -5.224 -14.839
-10.135 -9.786 -0.357
-19.596 -5.245 -15.372
-22.803 -7.145 -16.516
-19.596 -5.245 -15.372
-17.264 -9.405 -7.949
-14.158 -9.425 -4.976
-17.010 -10.457 -7.233
-10.035 -10.108 0.075
-13.490 -2.945 -11.626
-16.174 -9.033 -7.456
-11.563 -10.832 -0.758
-10.075 -6.332 -3.788
-16.303 -9.027 -7.598
-9.649 -6.777 -3.485
-17.915 -10.038 -7.896
-17.020 -10.455 -7.244
-19.600 -5.245 -15.376
-11.530 -10.838 -0.718
-10.867 -10.958 0.089
-11.149 -9.531 -1.634
-10.075 -6.333 -3.787
-19.489 -5.147 -15.346
-22.801 -7.145 -16.515
-16.909 -10.474 -7.114
-10.076 -6.332 -3.788
-10.722 -10.572 -0.149
-16.304 -9.026 -7.599
-19.336 -5.130 -15.198
-18.785 -9.992 -8.814
-10.771 -9.560 -1.220
-22.783 -7.092 -16.541
-13.992 -8.576 -5.858
-17.992 -9.558 -8.498
-10.933 -10.131 -0.800
-10.895 -10.936 0.041
-17.959 -9.195 -8.821
-17.959 -9.195 -8.821
-10.075 -6.332 -3.788
-10.043 -10.157 0.115
-10.715 -10.571 -0.143
-10.075 -6.332 -3.788
-10.160 -10.572 0.413
-10.272 -10.962 0.690
-18.688 -9.960 -8.750
-10.270 -10.963 0.692
-17.959 -9.195 -8.821
-22.806 -7.144 -16.520
-17.082 -9.384 -7.790
-16.028 -9.086 -7.271
-22.807 -7.144 -16.521
-10.354 -10.155 -0.197
-16.675 -10.531 -6.829
-16.299 -9.027 -7.593
-10.906 -8.328 -2.720
-10.076 -6.332 -3.788
-9.994 -6.271 -3.769
-22.805 -7.145 -16.519
-18.089 -9.216 -8.930
-17.574 -9.305 -8.324
-22.805 -7.145 -16.519
-17.574 -9.305 -8.324
-9.273 -9.480 0.205
-10.076 -6.332 -3.788
-9.285 -9.475 0.189
-13.798 -6.420 -7.526
-13.505 -2.942 -11.644
-16.481 -9.964 -6.548
-22.800 -7.090 -16.561
-22.800 -7.090 -16.561
-10.964 -10.121 -0.841
-22.801 -7.090 -16.562
-11.202 -9.583 -1.630
-13.839 -8.895 -5.087
-13.799 -6.419 -7.527
-16.124 -10.311 -5.831
-22.819 -7.140 -16.538
-10.248 -9.853 -0.395
-16.301 -9.027 -7.596
-22.799 -7.090 -16.560
-10.076 -6.331 -3.789
-10.867 -8.371 -2.629
-11.083 -10.591 -0.494
-9.234 -8.894 -0.345
-10.077 -6.330 -3.791
-17.591 -9.300 -8.345
-10.037 -10.107 0.072
-10.077 -6.330 -3.791
-22.815 -7.087 -16.580
-16.542 -10.272 -6.289
-11.100 -10.582 -0.520
-14.223 -8.135 -6.201
-10.035 -10.107 0.073
-22.829 -7.139 -16.549
-10.709 -10.609 -0.100
-9.213 -8.898 -0.321
-10.077 -6.330 -3.792
-10.038 -10.106 0.070
-10.166 -10.569 0.405
-19.513 -5.143 -15.375
-11.103 -10.759 -0.373
-11.589 -10.822 -0.793
-19.511 -5.143 -15.372
-10.077 -6.330 -3.792
-10.156 -9.449 -0.710
-22.811 -7.087 -16.576
-22.825 -7.140 -16.545
-22.825 -7.140 -16.545
-10.600 -10.895 0.292
-17.916 -10.034 -7.902
-16.695 -10.528 -6.854
-17.970 -9.191 -8.835
-17.361 -9.276 -8.180
-17.912 -10.040 -7.892
-17.090 -9.381 -7.800
-17.577 -9.303 -8.330
-8.624 -9.047 0.423
-10.035 -10.108 0.074
-22.804 -7.088 -16.567
-18.697 -9.959 -8.760
-10.076 -6.331 -3.790
-22.812 -7.143 -16.528
-22.806 -7.088 -16.569
-10.709 -10.608 -0.100
-11.537 -10.831 -0.732
-22.819 -7.141 -16.538
-9.212 -8.899 -0.320
-11.201 -9.583 -1.629
-14.218 -9.412 -5.040
-10.033 -10.108 0.077
-22.794 -7.089 -16.556
-11.537 -10.831 -0.732
-16.215 -9.041 -7.491
-10.888 -9.598 -1.308
-16.918 -9.729 -7.250
-11.203 -9.583 -1.631
-19.361 -7.710 -12.231
-10.151 -9.450 -0.703
-16.624 -9.936 -6.720
-10.887 -9.599 -1.306
-22.808 -7.142 -16.525
-18.691 -9.961 -8.753
-11.574 -10.824 -0.776
-17.569 -9.304 -8.321
-14.219 -8.136 -6.195
-10.153 -9.449 -0.706
-10.164 -10.571 0.408
-9.070 -8.710 -0.361
-9.856 -9.994 0.141
-22.910 -7.128 -16.646
-16.598 -10.541 -6.739
-16.960 -9.686 -7.338
-9.179 -8.968 -0.213
-16.626 -9.938 -6.720
-10.185 -10.562 0.378
-16.960 -9.686 -7.338
-9.217 -8.587 -0.635
-10.905 -9.587 -1.336
-17.085 -9.696 -7.452
-19.661 -5.237 -15.447
-22.883 -7.130 -16.615
-22.883 -7.130 -16.615
-11.061 -10.592 -0.470
-10.260 -9.851 -0.410
-15.149 -9.607 -5.616
-11.095 -10.583 -0.514
-9.396 -7.114 -2.295
-14.017 -8.203 -5.926
-10.259 -9.981 -0.276
-8.689 -8.982 0.291
-17.309 -9.574 -7.809
-22.842 -7.135 -16.568
-10.430 -9.570 -0.870
-10.181 -10.564 0.384
-10.051 -9.522 -0.536
-10.076 -6.331 -3.790
-13.908 -8.881 -5.160
-9.649 -6.776 -3.487
-10.910 -8.327 -2.724
-10.720 -10.574 -0.145
-10.039 -10.159 0.121
-22.791 -7.147 -16.502
-10.590 -10.899 0.305
-10.157 -10.574 0.418
-22.783 -7.092 -16.541
-9.091 -9.163 0.073
-16.750 -9.906 -6.878
-17.894 -10.041 -7.873
-10.040 -10.158 0.119
-10.915 -9.618 -1.316
-16.908 -9.732 -7.237
-10.010 -10.182 0.171
-10.075 -6.332 -3.788
-17.076 -9.385 -7.782
-10.720 -10.574 -0.146
-10.034 -10.109 0.076
-10.034 -10.109 0.076
-10.030 -10.109 0.081
-17.076 -9.385 -7.782
-17.960 -9.194 -8.822
-19.599 -5.245 -15.374
-9.986 -10.136 0.151
-9.989 -10.183 0.194
-10.076 -9.446 -0.632
-17.082 -9.384 -7.790
-8.679 -8.995 0.314
-10.076 -6.332 -3.788
-19.599 -5.245 -15.374
-10.149 -10.601 0.453
-11.111 -9.469 -1.650
-16.485 -10.242 -6.262
-9.277 -9.477 0.199
-10.167 -10.572 0.406
-10.160 -10.573 0.414
-14.203 -9.415 -5.025
-16.673 -10.531 -6.827
-16.673 -10.531 -6.827
-19.147 -9.859 -9.312
-10.905 -8.328 -2.718
-17.080 -9.384 -7.787
-10.711 -8.262 -2.596
-19.598 -5.245 -15.374
-22.490 -7.097 -16.198
-19.498 -5.147 -15.355
-10.908 -8.327 -2.723
-22.811 -7.143 -16.527
-17.961 -9.194 -8.823
-10.035 -10.108 0.075
-10.031 -10.109 0.080
-14.068 -9.433 -4.881
-11.161 -10.577 -0.587
-22.811 -7.087 -16.575
-10.526 -10.568 0.043
-10.078 -9.445 -0.636
-22.811 -7.087 -16.575
-10.351 -10.050 -0.299
-17.584 -9.302 -8.337
-19.609 -5.242 -15.388
-10.138 -9.787 -0.358
-11.054 -10.771 -0.310
-10.076 -6.331 -3.790
-17.093 -9.380 -7.804
-10.274 -10.962 0.688
-11.192 -9.868 -1.331
-22.797 -7.089 -16.559
-10.138 -9.789 -0.357
-16.686 -10.530 -6.844
-10.884 -9.601 -1.301
-13.483 -2.946 -11.618
-11.047 -10.596 -0.453
-17.087 -9.382 -7.796
-16.561 -10.543 -6.714
-19.348 -5.127 -15.214
-18.692 -9.960 -8.754
-10.042 -10.157 0.116
-10.074 -9.448 -0.630
-10.153 -9.450 -0.706
-16.693 -10.529 -6.852
-10.349 -10.154 -0.194
-16.696 -10.528 -6.855
-9.279 -9.477 0.196
-17.087 -9.382 -7.796
-18.814 -9.896 -8.941
-10.076 -9.447 -0.631
-16.742 -10.535 -6.872
-10.033 -10.159 0.126
-9.491 -7.125 -2.379
-9.286 -9.477 0.190
-9.571 -8.850 -0.724
-10.888 -9.598 -1.308
-10.076 -9.446 -0.632
-10.277 -10.961 0.684
-17.360 -9.276 -8.179
-9.541 -9.989 0.450
-9.274 -9.479 0.204
-10.037 -10.107 0.072
-9.398 -7.123 -2.288
-13.492 -2.943 -11.630
-11.110 -9.470 -1.648
-9.285 -9.037 -0.249
-10.077 -6.331 -3.790
-17.970 -9.192 -8.835
-10.350 -10.154 -0.194
-10.156 -9.449 -0.709
-15.538 -9.569 -6.036
-13.495 -2.942 -11.634
-9.394 -7.115 -2.292
-10.076 -9.447 -0.632
-10.037 -10.108 0.073
-9.274 -9.480 0.204
-17.359 -9.276 -8.177
-16.693 -10.529 -6.851
-11.090 -9.434 -1.664
-13.493 -2.943 -11.631
-10.075 -9.446 -0.632
-16.692 -10.529 -6.850
-10.076 -6.331 -3.790
-9.491 -7.125 -2.379
-10.172 -10.569 0.399
-18.697 -9.959 -8.760
-10.043 -10.157 0.115
-10.034 -10.108 0.075
-8.629 -9.046 0.417
-11.056 -10.769 -0.315
-11.098 -10.761 -0.366
-22.802 -7.088 -16.565
-11.110 -9.470 -1.647
-9.224 -8.469 -0.760
-9.275 -9.479 0.203
-16.692 -10.529 -6.851
-16.535 -10.278 -6.277
-10.909 -8.328 -2.722
-6.604 -6.950 0.346
-10.034 -10.108 0.076
-15.537 -9.569 -6.035
-9.543 -9.988 0.447
-9.278 -9.478 0.199
-10.075 -9.447 -0.631
-9.076 -9.020 -0.057
-9.716 -9.999 0.285
-9.233 -8.895 -0.344
-22.813 -7.142 -16.531
-14.015 -8.224 -5.903
-7.702 -7.676 -0.076
-17.577 -9.303 -8.330
-9.650 -6.777 -3.487
-10.045 -10.156 0.112
-10.037 -10.157 0.121
-9.491 -7.124 -2.379
-9.589 -8.469 -1.122
-13.594 -2.920 -11.759
-15.424 -9.650 -5.864
-9.475 -9.995 0.522
-16.800 -9.717 -7.144
-9.964 -10.445 0.484
-11.043 -10.596 -0.449
-19.506 -5.143 -15.367
-16.556 -9.802 -6.808
-16.391 -9.827 -6.617
-11.102 -10.758 -0.373
-19.159 -9.856 -9.327
-10.036 -10.158 0.123
-8.810 -9.509 0.697
-10.038 -10.107 0.070
-10.076 -6.331 -3.790
-19.605 -5.242 -15.384
-17.056 -10.174 -6.902
-9.233 -8.895 -0.344
-10.076 -10.153 0.078
-8.139 -6.713 -1.510
-10.154 -9.449 -0.708
-19.611 -5.242 -15.390
-10.154 -10.600 0.447
-22.818 -7.141 -16.537
-22.818 -7.141 -16.537
-10.889 -9.598 -1.310
-10.303 -9.984 -0.317
-9.650 -6.777 -3.487
-19.607 -5.243 -15.385
-10.076 -9.446 -0.632
-10.888 -9.598 -1.308
-10.036 -10.107 0.072
-11.201 -9.583 -1.629
-8.784 -7.248 -1.552
-16.054 -9.081 -7.301
-11.161 -10.577 -0.587
-16.702 -10.531 -6.863
-9.650 -6.778 -3.485
-10.278 -10.961 0.682
-16.698 -10.528 -6.858
-10.907 -8.329 -2.719
-13.482 -2.946 -11.617
-11.048 -10.596 -0.454
-10.013 -10.183 0.169
-11.056 -10.770 -0.314
-10.037 -10.107 0.073
-9.490 -7.125 -2.378
-8.978 -10.008 1.015
-9.718 -9.998 0.282
-9.311 -8.700 -0.612
-22.809 -7.142 -16.525
-9.589 -8.469 -1.121
-22.809 -7.143 -16.525
-16.437 -10.264 -6.193
-10.892 -8.431 -2.489
-10.007 -6.257 -3.797
-10.099 -10.140 0.042
-10.911 -9.585 -1.345
-9.304 -9.462 0.156
-9.497 -7.122 -2.388
-9.291 -8.892 -0.405
-11.177 -10.571 -0.610
-10.369 -10.142 -0.226
-11.110 -10.751 -0.389
-10.909 -9.586 -1.341
-10.749 -9.279 -1.480
-16.646 -10.209 -6.458
-14.582 -9.752 -4.917
-10.057 -10.095 0.039
-15.448 -9.699 -5.832
-10.091 -9.433 -0.661
-16.772 -10.527 -6.904
-10.056 -10.096 0.041
-9.727 -10.120 0.326
-11.114 -10.577 -0.540
-8.691 -8.981 0.288
-10.749 -9.279 -1.480
-10.368 -10.142 -0.225
-22.893 -7.127 -16.629
-6.819 -7.079 0.263
-13.561 -2.923 -11.721
-9.982 -10.644 0.663
-19.671 -5.234 -15.460
-9.328 -8.695 -0.634
-10.055 -10.096 0.042
-11.065 -10.759 -0.335
-13.854 -8.889 -5.112
-9.494 -7.123 -2.384
-13.561 -2.923 -11.722
-16.596 -10.231 -6.386
-19.672 -5.233 -15.461
-16.686 -10.541 -6.804
-22.895 -7.126 -16.632
-10.027 -10.168 0.141
-10.057 -10.095 0.040
-10.908 -9.586 -1.341
-10.605 -10.716 0.084
-16.196 -10.271 -5.945
-9.426 -10.188 0.764
-11.115 -10.574 -0.543
-13.562 -2.922 -11.723
-9.337 -8.696 -0.642
-9.288 -9.465 0.176
-13.855 -8.889 -5.113
-19.672 -5.233 -15.461
-22.893 -7.073 -16.675
-16.621 -10.538 -6.756
-16.195 -10.270 -5.945
-19.675 -5.233 -15.465
-10.003 -10.170 0.168
-11.035 -10.767 -0.296
-9.148 -9.039 -0.109
-10.078 -6.325 -3.797
-16.685 -10.245 -6.460
-13.565 -2.922 -11.726
-10.750 -9.277 -1.483
-11.866 -7.769 -4.889
-9.544 -9.424 -0.121
-11.109 -10.582 -0.530
-16.642 -9.811 -6.887
-22.897 -7.126 -16.635
-13.565 -2.921 -11.727
-13.565 -2.921 -11.727
-16.013 -9.606 -6.452
-10.104 -10.580 0.472
-9.280 -9.468 0.187
-10.101 -10.585 0.483
-10.065 -10.440 0.376
-11.110 -10.575 -0.538
-17.611 -10.029 -7.607
-16.022 -9.587 -6.486
-15.595 -9.614 -6.069
-11.112 -10.747 -0.395
-16.643 -9.789 -6.916
-15.435 -9.706 -5.811
-13.521 -2.934 -11.668
-15.912 -9.503 -6.503
-10.541 -10.560 0.020
-10.049 -10.148 0.100
-16.601 -9.824 -6.838
-9.492 -7.124 -2.381
-14.697 -9.766 -5.016
-8.461 -9.143 0.682
-9.651 -6.774 -3.491
-6.604 -6.950 0.346
-9.419 -9.979 0.563
-16.728 -10.520 -6.891
-19.636 -5.236 -15.421
-10.541 -10.560 0.021
-10.745 -9.299 -1.455
-22.837 -7.078 -16.611
-9.534 -9.505 -0.032
-12.783 -7.048 -6.581
-9.701 -6.481 -3.249
-10.366 -10.041 -0.323
-9.017 -9.985 0.946
-10.083 -9.435 -0.651
-10.103 -10.583 0.479
-15.224 -9.622 -5.680
-10.052 -10.097 0.047
-7.796 -6.758 -1.150
-16.598 -9.821 -6.836
-9.492 -7.124 -2.381
-10.916 -8.326 -2.732
-13.525 -2.933 -11.673
-10.031 -10.203 0.173
-15.433 -9.703 -5.812
-6.824 -7.078 0.256
-10.065 -10.440 0.377
-7.003 -7.405 0.368
-10.293 -10.951 0.657
-9.402 -7.121 -2.293
-9.290 -9.465 0.173
-9.290 -9.465 0.173
-9.700 -6.482 -3.247
-13.528 -2.933 -11.677
-19.476 -7.753 -12.304
-19.641 -5.236 -15.427
-9.142 -9.542 0.399
-9.999 -10.171 0.173
-9.401 -7.122 -2.291
-19.641 -5.236 -15.427
-9.997 -10.591 0.595
-9.911 -9.976 0.067
-10.098 -10.576 0.479
-11.106 -10.748 -0.388
-16.771 -10.527 -6.904
-16.597 -9.823 -6.834
-19.639 -5.236 -15.425
-9.159 -8.901 -0.264
-10.010 -10.613 0.604
-9.595 -8.468 -1.129
-16.249 -10.302 -5.966
-19.639 -5.236 -15.425
-10.009 -10.614 0.605
-16.597 -9.823 -6.834
-10.082 -9.436 -0.649
-11.110 -10.576 -0.537
-13.525 -2.933 -11.673
-16.597 -9.823 -6.834
-16.644 -9.787 -6.919
-9.232 -8.466 -0.772
-13.476 -2.936 -11.624
-22.795 -7.120 -16.525
-9.692 -6.468 -3.254
-22.853 -7.131 -16.582
-8.664 -9.018 0.352
-10.587 -7.204 -3.500
-8.702 -7.296 -1.417
-22.851 -7.132 -16.579
-22.851 -7.132 -16.579
-11.074 -10.582 -0.494
-10.158 -10.600 0.443
-9.989 -10.180 0.192
-9.997 -10.621 0.626
-14.424 -9.855 -4.655
-9.363 -9.323 -0.044
-11.075 -10.582 -0.496
-11.075 -10.582 -0.496
-16.052 -10.369 -5.706
-10.900 -9.590 -1.329
-10.726 -9.572 -1.174
-9.402 -7.121 -2.294
-16.777 -10.526 -6.910
-9.417 -9.980 0.565
-16.855 -10.199 -6.677
-16.266 -10.302 -5.983
-9.569 -10.678 1.092
-11.081 -10.564 -0.534
-10.053 -10.097 0.046
-11.414 -8.183 -3.529
-9.272 -9.603 0.323
-16.150 -10.292 -5.878
-14.354 -9.333 -5.167
-10.076 -10.575 0.494
-9.275 -9.473 0.197
-9.802 -9.570 -0.237
-9.839 -9.976 0.140
-10.047 -10.148 0.102
-9.400 -7.123 -2.290
-9.928 -10.892 0.912
-10.021 -10.504 0.483
-7.001 -7.406 0.370
-13.679 -8.894 -4.920
-22.846 -7.133 -16.573
-10.439 -10.047 -0.391
-22.852 -7.131 -16.581
-8.782 -7.196 -1.598
-15.069 -9.740 -5.417
-9.483 -10.047 0.566
-9.990 -10.180 0.192
-8.702 -7.296 -1.417
-19.639 -5.236 -15.425
-9.881 -10.264 0.376
-16.616 -10.222 -6.415
-11.106 -10.752 -0.384
-10.179 -10.562 0.385
-10.745 -9.296 -1.459
-16.643 -9.787 -6.917
-9.596 -8.468 -1.129
-16.946 -10.376 -6.595
-10.900 -9.590 -1.329
-7.638 -7.816 0.123
-9.402 -7.121 -2.293
-9.491 -9.981 0.492
-9.018 -9.985 0.945
-9.459 -10.579 1.122
-16.725 -10.520 -6.887
-9.492 -9.981 0.491
-10.081 -10.576 0.495
-13.479 -2.935 -11.628
-9.493 -7.124 -2.382
-9.413 -10.002 0.584
-10.038 -10.474 0.436
-9.032 -9.503 0.469
-10.051 -10.147 0.097
-9.289 -9.466 0.176
-13.480 -2.935 -11.629
-9.232 -8.466 -0.771
-9.286 -9.469 0.181
-11.110 -10.575 -0.538
-10.604 -10.717 0.086
-8.632 -9.036 0.404
-7.639 -7.815 0.120
-10.098 -10.580 0.483
-16.710 -10.525 -6.841
-17.610 -10.029 -7.606
-9.285 -9.469 0.182
-11.175 -10.572 -0.606
-13.776 -8.882 -5.034
-11.111 -10.575 -0.538
-16.698 -9.776 -6.980
-10.090 -9.434 -0.659
-9.286 -9.467 0.179
-11.492 -8.198 -3.576
-22.895 -7.129 -16.629
-13.566 -2.923 -11.726
-16.004 -9.611 -6.439
-19.551 -5.200 -15.367
-9.141 -6.955 -2.742
-16.666 -10.544 -6.779
-12.806 -8.730 -4.250
-8.922 -10.032 1.091
-10.430 -10.710 0.212
-7.638 -7.811 0.116
-9.934 -10.264 0.329
-10.015 -10.613 0.600
-9.145 -9.541 0.394
-10.001 -10.171 0.172
-10.724 -8.261 -2.610
-13.522 -2.923 -11.683
-11.176 -10.578 -0.601
-7.637 -7.817 0.125
-7.637 -7.817 0.125
-11.113 -10.575 -0.541
-7.631 -7.703 0.073
-13.920 -8.877 -5.178
-16.770 -10.517 -6.905
-12.936 -6.987 -6.780
-10.056 -10.145 0.090
-16.080 -9.079 -7.332
-5.881 -6.775 0.892
-8.721 -9.493 0.771
-10.135 -10.550 0.401
-9.966 -10.896 0.879
-13.528 -2.921 -11.691
-13.676 -2.896 -11.867
-9.601 -8.467 -1.135
-9.416 -9.980 0.567
-9.416 -9.980 0.567
-9.631 -10.116 0.389
-16.276 -10.285 -6.010
-10.106 -10.587 0.480
-9.289 -9.464 0.174
-9.961 -9.041 -0.964
-10.104 -10.582 0.480
-9.652 -6.770 -3.498
-9.422 -9.976 0.557
-9.029 -9.979 0.928
-11.115 -10.574 -0.544
-9.301 -9.460 0.158
-9.699 -6.480 -3.249
-10.295 -10.033 -0.528
-10.084 -8.753 -1.388
-10.606 -10.715 0.083
-9.999 -10.543 0.541
-9.301 -9.460 0.158
-9.422 -9.976 0.557
-9.301 -9.460 0.158
-10.092 -9.431 -0.663
-10.054 -10.145 0.093
-16.276 -10.285 -6.010
-10.981 -7.032 -4.068
-6.823 -7.078 0.257
-11.113 -10.574 -0.541
-9.932 -10.890 0.906
-9.181 -8.897 -0.290
-10.054 -10.145 0.093
-16.276 -10.285 -6.010
-10.054 -10.145 0.093
-9.021 -9.982 0.940
-6.953 -7.409 0.422
-10.101 -10.589 0.488
-6.854 -7.425 0.489
-10.053 -10.145 0.093
-9.637 -10.198 0.561
-19.673 -5.233 -15.463
-15.177 -9.678 -5.577
-11.082 -10.580 -0.505
-15.312 -9.675 -5.722
-15.965 -9.078 -7.213
-13.529 -2.921 -11.693
-16.647 -10.206 -6.462
-13.677 -2.896 -11.868
-16.773 -10.213 -6.579
-10.185 -10.560 0.377
-8.491 -9.034 0.544
-10.055 -10.145 0.091
-15.277 -9.611 -5.738
-13.876 -8.885 -5.135
-16.776 -10.526 -6.909
-16.308 -10.277 -6.050
-11.114 -10.574 -0.542
-16.776 -10.526 -6.909
-15.319 -9.587 -5.803
-13.876 -8.885 -5.135
-11.114 -10.574 -0.542
-10.276 -10.309 0.020
-9.291 -8.892 -0.405
-11.258 -10.386 -0.904
-16.652 -9.807 -6.900
-16.623 -10.538 -6.761
-10.061 -10.093 0.034
-11.029 -7.007 -4.143
-10.058 -10.144 0.087
-10.061 -10.093 0.034
-10.058 -10.144 0.087
-11.115 -10.574 -0.543
-8.320 -9.356 1.033
-13.859 -8.867 -5.121
-10.097 -10.586 0.491
-8.671 -7.244 -1.444
-5.882 -6.775 0.891
-10.058 -10.144 0.087
-13.667 -2.898 -11.856
-6.809 -7.084 0.277
-8.422 -9.159 0.737
-8.790 -8.469 -0.326
-10.995 -10.480 -0.521
-16.297 -10.280 -6.037
-14.580 -9.751 -4.916
-8.945 -9.581 0.634
-11.113 -10.575 -0.541
-11.177 -10.571 -0.608
-10.054 -10.145 0.093
-13.852 -8.889 -5.110
-9.181 -8.897 -0.289
-7.639 -7.815 0.121
-10.054 -10.145 0.093
-14.078 -9.416 -4.904
-9.021 -9.982 0.939
-16.275 -10.285 -6.009
-8.715 -9.496 0.780
-10.601 -10.504 -0.099
-14.227 -9.404 -5.059
-9.076 -6.623 -2.481
-7.553 -7.464 -0.104
-7.553 -7.464 -0.104
-7.553 -7.464 -0.104
-7.553 -7.464 -0.104
-7.553 -7.464 -0.104
-8.671 -7.352 -1.343
-8.671 -7.352 -1.343
-8.643 -7.362 -1.304
-8.671 -7.352 -1.343
-8.671 -7.352 -1.343
-9.105 -6.607 -2.527
-16.333 -9.260 -7.124
-6.955 -7.426 0.474
-8.671 -7.352 -1.343
-8.671 -7.352 -1.343
-6.620 -7.026 0.407
-16.363 -9.240 -7.169
-9.006 -6.637 -2.398
-16.363 -9.240 -7.169
-7.553 -7.464 -0.103
-11.056 -8.948 -2.175
-7.552 -7.471 -0.096
-7.717 -7.687 -0.075
-9.705 -6.475 -3.259
-8.831 -7.151 -1.693
-7.557 -7.469 -0.103
-16.039 -8.898 -7.193
-15.825 -8.399 -7.532
-8.831 -7.151 -1.693
-9.705 -6.475 -3.260
-7.557 -7.469 -0.103
-11.032 -8.843 -2.251
-7.552 -7.471 -0.096
-6.969 -7.402 0.399
-7.552 -7.471 -0.096
-11.041 -8.909 -2.202
-16.333 -9.260 -7.124
-10.057 -10.094 0.039
-9.035 -6.620 -2.445
-11.056 -8.944 -2.179
-6.959 -7.405 0.411
-6.804 -7.069 0.267
-8.609 -7.362 -1.270
-7.709 -7.692 -0.062
-7.552 -7.471 -0.096
-8.435 -4.405 -4.121
-7.552 -7.471 -0.096
-11.056 -8.948 -2.175
-6.804 -7.069 0.267
-16.333 -9.260 -7.124
-13.853 -8.890 -5.110
-7.879 -5.147 -2.826
-7.549 -7.465 -0.099
-11.104 -10.576 -0.531
-8.832 -7.150 -1.693
-15.828 -8.398 -7.535
-12.742 -9.080 -3.927
-16.605 -9.241 -7.415
-9.705 -6.475 -3.260
-12.740 -9.141 -3.908
-6.932 -7.158 0.227
-7.637 -6.741 -1.009
-15.605 -8.421 -7.293
-8.435 -4.405 -4.121
-16.330 -9.260 -7.121
-15.603 -8.422 -7.291
-7.187 -7.056 -0.143
-7.359 -7.240 -0.124
-6.504 -6.680 0.177
-8.801 -7.205 -1.610
-7.704 -7.675 -0.075
-15.830 -8.398 -7.537
-9.236 -6.590 -2.678
-16.602 -9.241 -7.412
-8.831 -7.151 -1.693
-7.460 -6.669 -0.792
-8.670 -7.358 -1.336
-6.622 -7.025 0.404
-7.483 -7.471 -0.026
-9.024 -6.629 -2.425
-10.057 -10.544 0.480
-8.697 -7.347 -1.375
-6.955 -7.425 0.472
-10.113 -9.766 -0.363
-15.605 -8.421 -7.293
-16.333 -9.260 -7.124
-12.743 -9.296 -3.889
-7.496 -7.151 -0.345
-7.552 -7.471 -0.096
-8.652 -7.311 -1.361
-6.645 -6.904 0.226
-6.645 -6.904 0.226
-6.453 -6.709 0.258
-6.811 -7.086 0.277
-16.005 -8.898 -7.160
-10.055 -10.145 0.091
-7.496 -7.150 -0.346
-15.608 -8.421 -7.296
-7.552 -7.471 -0.096
-7.552 -7.471 -0.096
-6.569 -6.684 0.117
-15.816 -8.399 -7.523
-10.052 -10.095 0.045
-7.555 -7.494 -0.079
-9.512 -6.471 -3.051
-8.419 -4.410 -4.098
-9.253 -8.880 -0.376
-15.946 -8.899 -7.100
-7.120 -7.038 -0.093
-9.482 -9.514 0.032
-7.740 -7.708 -0.069
-8.690 -7.159 -1.542
-7.120 -7.038 -0.094
-6.725 -7.120 0.397
-6.822 -7.468 0.648
-6.725 -7.120 0.397
-8.390 -4.420 -4.059
-7.784 -7.876 0.090
-7.456 -7.149 -0.307
-7.774 -7.738 -0.035
-23.011 -7.119 -16.752
-6.803 -7.069 0.268
-15.955 -8.901 -7.107
-7.138 -7.054 -0.097
-7.033 -7.078 0.045
-7.359 -7.239 -0.125
-6.823 -7.074 0.253
-6.823 -7.074 0.253
-9.610 -6.407 -3.233
-8.704 -7.295 -1.420
-7.587 -7.460 -0.143
-15.299 -8.605 -6.712
-6.600 -6.688 0.089
-7.735 -7.684 -0.099
-10.557 -5.749 -5.637
-5.823 -6.774 0.949
-6.820 -7.076 0.258
-7.544 -7.695 0.152
-15.755 -8.403 -7.457
-7.359 -7.239 -0.125
-6.600 -6.688 0.089
-7.412 -7.239 -0.178
-16.629 -9.226 -7.450
-6.527 -6.717 0.188
-9.135 -6.594 -2.570
-15.620 -8.412 -7.316
-7.735 -7.684 -0.099
-7.577 -7.449 -0.144
-15.755 -8.403 -7.457
-16.587 -9.241 -7.398
-7.735 -7.684 -0.099
-16.538 -9.226 -7.360
-9.266 -6.577 -2.720
-8.596 -7.289 -1.318
-6.766 -7.309 0.541
-9.266 -6.577 -2.720
-11.220 -10.041 -1.334
-7.186 -7.056 -0.142
-11.151 -5.672 -6.132
-15.604 -8.420 -7.294
-6.588 -6.951 0.365
-8.397 -4.420 -4.067
-7.138 -7.054 -0.096
-6.799 -6.687 -0.118
-7.727 -7.852 0.126
-7.676 -7.748 0.072
-11.054 -8.948 -2.173
-7.496 -7.150 -0.346
-11.054 -8.948 -2.173
-6.798 -7.071 0.275
-7.726 -7.689 -0.085
-7.932 -8.030 0.094
-15.604 -8.420 -7.294
-9.135 -6.594 -2.570
-15.955 -8.901 -7.107
-16.503 -9.241 -7.315
-15.212 -8.607 -6.623
-6.915 -7.430 0.518
-16.538 -9.226 -7.360
-7.477 -6.670 -0.808
-7.772 -7.738 -0.033
-7.963 -5.126 -2.928
-6.947 -7.427 0.483
-6.621 -6.951 0.330
-6.947 -7.427 0.483
-15.604 -8.420 -7.294
-6.777 -7.306 0.527
-7.678 -7.854 0.178
-8.121 -4.799 -3.391
-8.671 -7.301 -1.389
-16.320 -9.260 -7.112
-7.583 -7.455 -0.143
-9.504 -10.199 0.612
-6.623 -6.950 0.328
-8.852 -7.140 -1.723
-9.695 -6.461 -3.263
-7.412 -7.239 -0.178
-15.808 -8.397 -7.515
-6.645 -6.904 0.226
-16.503 -9.241 -7.315
-16.041 -8.898 -7.195
-7.713 -7.673 -0.089
-6.528 -6.963 0.436
-7.780 -7.492 -0.287
-7.780 -7.876 0.094
-15.604 -8.420 -7.294
-15.955 -8.901 -7.107
-6.485 -6.822 0.338
-6.425 -6.819 0.395
-8.090 -7.359 -0.776
-11.054 -8.948 -2.173
-7.359 -7.239 -0.125
-5.444 -5.687 0.245
-9.135 -6.594 -2.570
-16.319 -9.260 -7.111
-6.758 -7.070 0.314
-9.699 -6.475 -3.253
-8.398 -4.420 -4.068
-8.670 -7.301 -1.389
-15.953 -8.901 -7.105
-7.138 -7.054 -0.096
-6.220 -6.575 0.357
-6.600 -6.688 0.089
-15.755 -8.403 -7.457
-16.621 -9.226 -7.442
-7.780 -7.492 -0.287
-16.042 -8.898 -7.196
-6.820 -7.076 0.257
-15.755 -8.403 -7.457
-7.138 -7.054 -0.097
-16.533 -9.242 -7.342
-7.178 -6.619 -0.575
-16.538 -9.226 -7.360
-7.772 -7.738 -0.033
-7.772 -7.738 -0.033
-16.319 -9.260 -7.111
-7.780 -7.876 0.094
-16.319 -9.260 -7.111
-6.809 -7.068 0.260
-9.993 -10.116 0.125
-8.671 -7.301 -1.390
-6.799 -6.687 -0.118
-6.525 -7.273 0.751
-6.525 -7.273 0.751
-6.948 -7.427 0.482
-7.635 -7.732 0.098
-15.755 -8.403 -7.457
-9.249 -8.879 -0.372
-8.574 -7.361 -1.234
-7.138 -7.053 -0.097
-7.186 -7.056 -0.142
-9.337 -10.048 0.713
-15.990 -8.898 -7.144
-6.556 -6.976 0.421
-7.496 -7.150 -0.346
-9.232 -8.905 -0.332
-16.306 -9.240 -7.116
-6.525 -7.273 0.750
-6.587 -6.951 0.366
-6.808 -7.068 0.262
-10.003 -10.130 0.129
-11.054 -8.948 -2.173
-15.607 -8.419 -7.297
-6.808 -7.068 0.261
-15.604 -8.420 -7.294
-9.266 -6.577 -2.720
-15.212 -8.607 -6.623
-15.913 -8.904 -7.062
-9.249 -8.879 -0.372
-15.955 -8.901 -7.107
-9.266 -6.577 -2.720
-8.123 -4.798 -3.396
-16.624 -9.226 -7.445
-9.249 -8.879 -0.372
-16.320 -9.260 -7.112
-7.780 -7.492 -0.287
-16.491 -9.225 -7.316
-15.999 -8.901 -7.150
-9.143 -8.905 -0.243
-16.043 -8.898 -7.198
-8.056 -8.139 0.085
-6.768 -7.079 0.313
-7.325 -7.727 0.364
-8.795 -7.192 -1.615
-15.824 -8.397 -7.532
-7.922 -5.136 -2.879
-9.232 -8.905 -0.332
-15.604 -8.420 -7.294
-7.780 -7.492 -0.287
-15.755 -8.403 -7.457
-11.054 -8.948 -2.173
-16.354 -9.241 -7.160
-7.952 -8.026 0.075
-6.802 -7.070 0.270
-8.120 -7.429 -0.702
-11.054 -8.948 -2.173
-7.138 -7.054 -0.097
-7.649 -7.689 -0.009
-15.755 -8.403 -7.457
-6.088 -5.162 -0.927
-8.425 -4.411 -4.103
-9.976 -10.633 0.655
-16.502 -9.241 -7.314
-10.511 -5.750 -5.589
-15.213 -8.607 -6.624
-8.799 -7.193 -1.619
-7.780 -7.492 -0.287
-8.703 -7.295 -1.420
-16.576 -9.225 -7.400
-7.462 -6.669 -0.794
-15.129 -8.612 -6.535
-9.249 -8.879 -0.372
-7.933 -8.030 0.094
-16.320 -9.260 -7.112
-7.772 -7.738 -0.033
-7.496 -7.150 -0.346
-6.930 -7.158 0.228
-15.955 -8.901 -7.107
-9.128 -9.116 -0.162
-7.772 -7.738 -0.033
-6.525 -7.273 0.751
-6.889 -7.428 0.541
-7.727 -7.852 0.126
-6.104 -5.161 -0.945
-8.396 -4.421 -4.065
-7.677 -7.854 0.179
-15.604 -8.420 -7.294
-8.670 -7.301 -1.389
-7.772 -7.738 -0.033
-16.354 -9.241 -7.160
-6.778 -6.686 -0.098
-9.687 -6.493 -3.222
-6.424 -7.309 0.888
-6.781 -7.078 0.299
-16.354 -9.241 -7.160
-7.932 -8.030 0.094
-7.208 -7.379 0.171
-6.085 -5.164 -0.922
-10.052 -10.093 0.042
-8.496 -5.186 -3.362
-6.895 -7.161 0.266
-7.372 -7.239 -0.139
-8.654 -7.216 -1.450
-6.487 -6.689 0.204
-7.169 -7.042 -0.139
-7.775 -7.737 -0.037
-7.721 -7.713 -0.043
-11.061 -8.950 -2.178
-9.422 -8.515 -0.942
-7.277 -7.988 0.706
-9.422 -8.515 -0.942
-9.713 -7.898 -1.824
-9.429 -8.485 -0.972
-10.589 -8.299 -2.294
-10.589 -8.299 -2.294
-10.242 -8.372 -1.874
-10.589 -8.299 -2.294
-9.692 -7.902 -1.799
-9.488 -8.524 -1.001
-9.488 -8.524 -1.001
-10.247 -8.370 -1.880
-9.387 -7.894 -1.495
-10.593 -8.299 -2.298
-9.431 -8.486 -0.974
-9.488 -8.524 -1.001
-8.224 -7.807 -0.419
-10.593 -8.299 -2.298
-10.593 -8.299 -2.298
-8.973 -8.212 -0.784
-10.592 -8.300 -2.296
-9.694 -7.901 -1.802
-8.888 -7.862 -1.072
-9.008 -8.215 -0.817
-9.416 -8.525 -0.926
-9.429 -8.511 -0.951
-9.263 -8.524 -0.740
-10.591 -8.300 -2.296
-9.694 -7.901 -1.801
-9.429 -8.511 -0.951
-10.494 -8.294 -2.204
-8.130 -8.121 -0.008
-8.973 -8.212 -0.784
-9.387 -7.894 -1.495
-10.592 -8.300 -2.296
-9.416 -8.525 -0.926
-9.492 -7.896 -1.673
-9.693 -7.902 -1.799
-10.417 -8.371 -2.050
-7.439 -7.878 0.440
-8.347 -7.828 -0.521
-10.594 -8.299 -2.299
-7.440 -7.878 0.439
-9.696 -7.901 -1.803
-10.594 -8.299 -2.299
-10.148 -8.371 -1.780
-9.475 -8.537 -0.978
-8.267 -7.811 -0.458
-8.973 -8.212 -0.784
-8.973 -8.212 -0.784
-9.514 -8.800 -0.716
-9.120 -8.442 -0.689
-8.328 -8.115 -0.224
-9.428 -8.512 -0.950
-10.242 -8.372 -1.873
-7.280 -7.154 -0.131
-9.344 -7.906 -1.519
-10.588 -8.300 -2.292
-10.588 -8.300 -2.292
-8.973 -8.212 -0.784
-10.245 -8.371 -1.877
-9.694 -7.901 -1.802
-8.129 -8.123 -0.005
-8.002 -7.902 -0.167
-9.384 -7.894 -1.492
-10.242 -8.372 -1.874
-9.474 -8.538 -0.975
-10.590 -8.300 -2.294
-9.385 -7.895 -1.493
-10.243 -8.372 -1.875
-9.429 -8.511 -0.951
-10.590 -8.300 -2.294
-9.487 -8.525 -0.999
-10.323 -8.370 -1.956
-10.323 -8.370 -1.956
-9.431 -8.486 -0.974
-10.246 -8.370 -1.879
-9.264 -8.523 -0.741
-10.248 -8.370 -1.882
-9.475 -8.537 -0.977
-8.339 -8.097 -0.251
-9.488 -8.524 -1.001
-9.122 -8.441 -0.691
-9.578 -8.808 -0.772
-8.973 -8.212 -0.784
-10.245 -8.371 -1.877
-8.129 -8.123 -0.005
-9.514 -8.800 -0.716
-9.584 -7.899 -1.692
-9.430 -8.510 -0.953
-10.494 -8.294 -2.204
-9.390 -7.893 -1.499
-9.145 -8.454 -0.697
-10.458 -8.300 -2.162
-10.494 -8.294 -2.204
-10.323 -8.370 -1.956
-9.173 -8.386 -0.794
-7.444 -7.874 0.431
-9.488 -8.523 -1.002
-9.668 -7.889 -1.852
-8.352 -8.088 -0.275
-10.425 -8.368 -2.060
-10.494 -8.294 -2.204
-10.251 -8.369 -1.885
-10.145 -8.384 -1.764
-9.307 -7.897 -1.412
-9.144 -8.455 -0.696
-9.144 -8.455 -0.696
-8.348 -7.827 -0.523
-9.385 -8.819 -0.567
-9.578 -8.808 -0.772
-8.268 -7.817 -0.453
-9.062 -8.530 -0.662
-8.352 -8.088 -0.275
-9.265 -8.523 -0.742
-10.494 -8.294 -2.204
-9.549 -7.902 -1.656
-10.148 -8.371 -1.780
-8.387 -8.093 -0.305
-9.514 -8.800 -0.716
-8.348 -7.827 -0.523
-9.697 -7.901 -1.805
-9.264 -8.523 -0.742
-9.062 -8.530 -0.662
-10.148 -8.371 -1.780
-10.148 -8.371 -1.780
-8.267 -7.811 -0.458
-7.440 -7.876 0.437
-9.428 -8.777 -0.750
-10.387 -8.365 -2.025
-8.143 -8.086 -0.055
-9.121 -8.441 -0.690
-7.440 -7.876 0.437
-8.973 -8.212 -0.784
-8.197 -8.146 -0.050
-10.590 -8.300 -2.295
-10.244 -8.372 -1.876
-9.307 -7.897 -1.412
-8.973 -8.212 -0.784
-9.818 -7.898 -1.927
-9.818 -7.898 -1.927
-10.465 -8.301 -2.168
-9.698 -7.901 -1.806
-7.369 -7.875 0.507
-8.973 -8.212 -0.784
-10.493 -8.294 -2.204
-8.352 -8.088 -0.275
-9.173 -8.386 -0.794
-10.145 -8.384 -1.764
-10.458 -8.299 -2.163
-9.145 -8.454 -0.697
-9.418 -8.524 -0.929
-8.172 -7.329 -0.845
-9.122 -8.441 -0.691
-9.122 -8.441 -0.691
-7.281 -7.154 -0.133
-10.251 -8.369 -1.885
-9.514 -8.800 -0.716
-9.120 -8.442 -0.689
-9.584 -7.899 -1.692
-9.475 -8.537 -0.978
-9.264 -8.520 -0.745
-10.646 -8.293 -2.357
-9.017 -8.215 -0.826
-10.419 -8.370 -2.052
-8.129 -8.123 -0.005
-10.742 -8.299 -2.447
-7.439 -7.877 0.439
-9.374 -8.389 -0.990
-10.745 -8.298 -2.451
-9.232 -8.470 -0.765
-9.017 -8.215 -0.826
-7.429 -7.071 -0.408
-8.352 -8.095 -0.266
-10.386 -8.366 -2.024
-10.597 -8.298 -2.303
-8.130 -8.121 -0.008
-8.843 -8.221 -0.635
-9.430 -8.510 -0.954
-9.430 -8.510 -0.954
-9.430 -8.510 -0.954
-7.281 -7.154 -0.132
-9.122 -8.441 -0.691
-9.233 -8.469 -0.767
-7.444 -7.874 0.431
-8.130 -8.121 -0.008
-10.713 -8.292 -2.426