-9.130 -9.900 0.767
-8.513 -9.315 0.813
-8.513 -9.315 0.813
-9.318 -9.896 0.576
-9.878 -9.252 -0.618
-10.078 -9.252 -0.819
-8.694 -9.188 0.513
-9.045 -9.894 0.845
-10.190 -9.248 -0.934
-9.253 -7.789 -1.459
-9.317 -9.900 0.581
-9.317 -9.900 0.581
-9.040 -9.897 0.853
-8.728 -9.325 0.610
-9.214 -9.648 0.447
-9.250 -7.786 -1.459
-9.214 -9.647 0.446
-8.728 -9.325 0.610
-7.823 -9.241 1.427
-8.367 -9.490 1.134
-9.238 -7.772 -1.460
-8.726 -9.336 0.621
-10.071 -9.250 -0.813
-9.633 -8.834 -0.786
-8.300 -9.477 1.168
-9.992 -9.652 -0.325
-9.159 -9.740 0.600
-9.159 -9.740 0.600
-7.353 -8.227 0.889
-9.159 -9.740 0.600
-8.889 -10.613 1.703
-8.728 -9.325 0.610
-6.937 -7.725 0.812
-8.728 -9.325 0.610
-9.159 -9.740 0.600
-9.159 -9.740 0.600
-9.036 -9.895 0.856
-8.728 -9.325 0.610
-9.476 -10.491 0.996
-7.885 -9.494 1.613
-9.159 -9.740 0.600
-9.538 -9.673 0.147
-8.727 -9.325 0.611
-10.245 -9.252 -0.984
-9.538 -9.673 0.147
-10.563 -9.353 -1.206
-10.245 -9.252 -0.984
-10.245 -9.252 -0.984
-10.563 -9.352 -1.206
-10.563 -9.352 -1.206
-10.276 -9.355 -0.911
-8.615 -9.288 0.688
-9.867 -9.257 -0.601
-8.665 -9.330 0.679
-7.882 -9.495 1.616
-7.882 -9.495 1.617
-8.279 -10.163 1.899
-9.166 -9.741 0.594
-9.464 -9.161 -0.297
-9.166 -9.741 0.594
-10.563 -9.352 -1.206
-8.389 -9.320 0.943
-9.464 -9.160 -0.298
-9.011 -9.893 0.878
-9.166 -9.741 0.594
-9.166 -9.741 0.594
-9.166 -9.741 0.594
-7.351 -8.261 0.926
-8.363 -9.489 1.137
-10.245 -9.252 -0.984
-9.152 -9.689 0.543
-10.563 -9.352 -1.206
-10.069 -9.248 -0.814
-10.059 -9.023 -1.024
-10.245 -9.252 -0.984
-10.245 -9.252 -0.984
-10.276 -9.355 -0.912
-8.561 -9.419 0.864
-9.464 -9.159 -0.298
-10.563 -9.352 -1.206
-8.696 -9.188 0.512
-10.044 -9.024 -1.007
-8.953 -10.602 1.631
-8.726 -9.325 0.612
-7.882 -9.494 1.616
-8.703 -9.173 0.488
-9.166 -9.741 0.594
-10.069 -9.255 -0.806
-10.070 -9.243 -0.820
-10.066 -9.263 -0.796
-9.159 -9.668 0.512
-8.479 -9.516 1.048
-7.616 -8.852 1.242
-8.506 -9.317 0.822
-8.506 -9.316 0.821
-10.563 -9.352 -1.206
-10.066 -9.256 -0.803
-8.726 -9.325 0.612
-10.563 -9.352 -1.206
-8.231 -9.805 1.584
-8.503 -9.514 1.010
-10.245 -9.252 -0.984
-10.276 -9.354 -0.912
-9.538 -9.673 0.147
-8.727 -9.325 0.611
-8.266 -9.464 1.189
-9.243 -7.776 -1.459
-9.796 -9.261 -0.527
-10.059 -9.054 -0.995
-8.727 -9.325 0.611
-9.012 -9.893 0.878
-10.245 -9.252 -0.984
-8.178 -9.299 1.132
-8.178 -9.299 1.131
-8.977 -9.777 0.817
-8.977 -9.776 0.817
-10.141 -9.254 -0.879
-8.971 -9.893 0.918
-10.070 -9.253 -0.809
-9.159 -9.669 0.513
-10.070 -9.251 -0.811
-10.541 -9.298 -1.233
-10.070 -9.250 -0.812
-10.276 -9.354 -0.912
-9.790 -8.984 -0.794
-10.563 -9.352 -1.206
-10.563 -9.352 -1.206
-10.069 -9.250 -0.812
-7.683 -9.174 1.497
-10.069 -9.254 -0.807
-9.230 -7.770 -1.455
-8.726 -9.325 0.612
-9.166 -9.741 0.594
-7.852 -9.505 1.657
-8.332 -9.512 1.191
-9.012 -9.893 0.878
-10.245 -9.252 -0.984
-8.971 -9.893 0.918
-9.159 -9.669 0.512
-10.028 -9.195 -0.824
-9.164 -9.741 0.596
-8.363 -9.495 1.142
-9.538 -9.673 0.147
-9.235 -9.905 0.669
-9.164 -9.741 0.596
-9.164 -9.741 0.596
-9.164 -9.741 0.596
-8.530 -9.971 1.452
-10.563 -9.352 -1.206
-10.563 -9.352 -1.206
-9.596 -9.070 -0.517
-10.245 -9.252 -0.984
-8.832 -9.878 1.040
-10.071 -9.252 -0.811
-10.557 -9.286 -1.262
-8.489 -9.433 0.946
-8.363 -9.501 1.148
-7.884 -9.494 1.614
-9.163 -9.741 0.596
-9.921 -9.956 0.036
-10.276 -9.355 -0.911
-10.053 -9.055 -0.986
-10.349 -9.334 -1.004
-10.346 -9.337 -0.999
-10.069 -9.254 -0.807
-9.019 -9.898 0.875
-9.164 -9.741 0.596
-9.538 -9.673 0.147
-10.562 -9.352 -1.206
-8.969 -9.893 0.920
-9.210 -9.654 0.458
-10.275 -9.355 -0.910
-10.015 -9.600 -0.402
-10.384 -9.958 -0.423
-9.439 -8.560 -0.879
-8.801 -9.074 0.289
-9.538 -9.673 0.147
-7.885 -9.496 1.615
-8.840 -9.323 0.496
-9.163 -9.741 0.597
-8.961 -9.887 0.922
-9.464 -9.159 -0.298
-9.166 -9.741 0.595
-9.166 -9.742 0.595
-9.792 -9.005 -0.775
-10.562 -9.352 -1.206
-10.315 -9.462 -0.847
-7.383 -8.854 1.490
-10.071 -9.253 -0.810
-10.562 -9.352 -1.206
-9.166 -9.742 0.595
-8.589 -9.418 0.837
-7.882 -9.494 1.615
-9.166 -9.741 0.595
-7.883 -9.495 1.616
-9.166 -9.741 0.595
-8.324 -9.324 1.014
-7.883 -9.496 1.616
-10.069 -9.250 -0.812
-10.275 -9.355 -0.910
-9.463 -9.159 -0.298
-8.960 -9.886 0.922
-8.771 -10.633 1.854
-10.562 -9.352 -1.206
-9.538 -9.673 0.147
-10.071 -9.253 -0.811
-9.796 -9.001 -0.782
-10.384 -9.958 -0.423
-9.242 -9.910 0.666
-8.998 -9.897 0.896
-9.243 -8.132 -1.100
-10.159 -9.044 -1.102
-10.063 -9.391 -0.661
-9.794 -9.015 -0.766
-10.562 -9.352 -1.206
-10.318 -9.458 -0.853
-8.614 -9.364 0.757
-8.433 -9.523 1.096
-10.055 -9.053 -0.989
-9.389 -8.227 -1.162
-10.384 -9.958 -0.423
-10.145 -9.017 -1.113
-8.966 -9.893 0.924
-10.016 -9.603 -0.400
-10.485 -9.153 -1.333
-10.051 -9.118 -0.922
-10.384 -9.958 -0.423
-10.384 -9.958 -0.423
-9.985 -9.655 -0.315
-10.276 -9.355 -0.911
-10.070 -9.256 -0.806
-9.793 -8.998 -0.782
-9.538 -9.673 0.147
-10.071 -9.250 -0.814
-8.957 -9.773 0.833
-8.381 -9.289 0.921
-8.957 -9.773 0.833
-8.082 -9.118 1.049
-10.540 -9.296 -1.234
-8.960 -9.926 0.964
-9.211 -9.653 0.454
-7.281 -8.823 1.562
-10.160 -9.013 -1.134
-10.558 -9.286 -1.263
-9.165 -9.741 0.594
-7.883 -9.497 1.617
-9.457 -8.598 -0.859
-10.014 -9.599 -0.401
-8.231 -9.184 0.971
-8.959 -9.882 0.918
-10.616 -9.350 -1.261
-10.275 -9.355 -0.910
-10.148 -9.149 -0.987
-8.727 -9.325 0.611
-9.164 -9.741 0.596
-8.727 -9.325 0.611
-9.164 -9.741 0.596
-9.538 -9.673 0.146
-8.489 -10.136 1.663
-9.699 -9.269 -0.424
-9.798 -9.261 -0.529
-9.538 -9.673 0.147
-10.318 -9.458 -0.853
-8.990 -9.903 0.911
-10.071 -9.253 -0.811
-9.243 -7.783 -1.454
-10.158 -9.015 -1.129
-10.162 -9.016 -1.133
-8.590 -9.185 0.614
-10.168 -9.032 -1.123
-9.212 -9.652 0.453
-8.952 -9.890 0.934
-10.304 -9.162 -1.142
-9.758 -9.062 -0.683
-10.126 -8.920 -1.191
-8.390 -9.321 0.943
-9.538 -9.673 0.146
-10.318 -9.458 -0.853
-10.174 -9.054 -1.107
-7.583 -9.281 1.709
-8.958 -9.895 0.934
-9.164 -9.741 0.596
-8.896 -10.599 1.684
-8.953 -9.890 0.933
-7.926 -9.072 1.160
-8.727 -9.325 0.611
-8.727 -9.325 0.611
-10.072 -9.254 -0.811
-8.727 -9.325 0.611
-7.258 -10.325 3.060
-10.072 -9.250 -0.814
-8.273 -9.443 1.178
-10.315 -9.462 -0.847
-9.538 -9.672 0.146
-10.159 -9.043 -1.103
-8.390 -9.319 0.942
-7.205 -8.823 1.638
-9.106 -9.247 0.147
-9.210 -9.654 0.456
-10.161 -9.048 -1.100
-10.167 -9.052 -1.102
-8.989 -9.897 0.905
-9.164 -9.741 0.596
-7.884 -9.495 1.614
-9.538 -9.673 0.147
-10.318 -9.458 -0.853
-10.384 -9.958 -0.424
-10.246 -9.252 -0.985
-10.056 -9.034 -1.009
-10.159 -9.034 -1.112
-9.164 -9.741 0.596
-7.648 -9.171 1.537
-9.793 -9.013 -0.767
-8.959 -9.895 0.932
-9.164 -9.741 0.596
-7.981 -9.338 1.369
-9.793 -9.028 -0.752
-10.209 -9.293 -0.900
-9.164 -9.741 0.596
-9.464 -9.160 -0.298
-10.209 -9.479 -0.723
-9.995 -9.050 -0.932
-10.276 -9.350 -0.916
-9.244 -8.142 -1.090
-7.878 -9.255 1.386
-8.966 -9.890 0.921
-8.726 -9.325 0.611
-9.538 -9.673 0.146
-9.316 -9.663 0.360
-10.159 -9.025 -1.120
-9.538 -9.673 0.147
-8.760 -9.877 1.112
-8.911 -8.806 -0.087
-7.927 -9.433 1.521
-10.384 -9.958 -0.424
-10.210 -9.479 -0.725
-9.165 -9.741 0.595
-8.366 -9.523 1.162
-8.953 -9.890 0.932
-7.835 -9.222 1.365
-9.792 -9.021 -0.758
-10.540 -9.294 -1.237
-8.361 -9.333 0.986
-10.072 -9.252 -0.812
-10.071 -9.251 -0.812
-9.165 -9.741 0.595
-7.854 -9.505 1.654
-8.020 -9.449 1.417
-7.838 -9.505 1.671
-10.158 -9.067 -1.078
-9.573 -8.236 -1.341
-10.119 -9.172 -0.935
-8.835 -9.763 0.946
-8.390 -9.320 0.943
-8.390 -9.320 0.943
-10.263 -9.457 -0.800
-9.710 -9.074 -0.624
-9.244 -8.133 -1.099
-8.959 -9.894 0.931
-10.276 -9.354 -0.913
-9.212 -9.652 0.453
-7.264 -9.602 2.352
-8.983 -9.894 0.907
-7.801 -9.114 1.325
-10.349 -9.334 -1.005
-10.072 -9.252 -0.812
-9.799 -9.261 -0.530
-10.070 -9.247 -0.816
-10.384 -9.958 -0.424
-9.709 -9.135 -0.562
-10.001 -9.655 -0.331
-8.591 -9.185 0.613
-10.576 -9.342 -1.228
-10.085 -9.390 -0.683
-9.435 -8.317 -1.126
-8.956 -9.894 0.934
-9.167 -9.741 0.594
-8.000 -9.335 1.345
-7.256 -9.137 1.895
-7.603 -9.297 1.703
-7.981 -9.338 1.370
-10.318 -9.458 -0.853
-10.072 -9.251 -0.813
-10.276 -9.354 -0.912
-8.325 -9.322 1.011
-7.856 -9.504 1.651
-9.794 -9.020 -0.761
-9.707 -9.089 -0.606
-8.686 -9.763 1.095
-8.773 -9.876 1.097
-10.384 -9.958 -0.424
-8.901 -9.762 0.858
-10.384 -9.958 -0.424
-9.316 -9.664 0.360
-10.159 -9.018 -1.128
-8.988 -9.894 0.902
-10.161 -8.973 -1.175
-10.276 -9.354 -0.912
-10.616 -9.350 -1.261
-9.717 -9.107 -0.598
-8.311 -9.542 1.237
-9.167 -9.741 0.594
-7.883 -9.495 1.616
-8.777 -9.323 0.559
-9.166 -9.741 0.594
-7.763 -9.466 1.707
-9.796 -9.262 -0.526
-9.683 -9.371 -0.301
-9.315 -9.664 0.362
-10.348 -9.334 -1.004
-9.531 -9.674 0.155
-10.384 -9.958 -0.424
-10.348 -9.333 -1.005
-8.265 -9.186 0.939
-8.325 -9.323 1.012
-9.798 -9.261 -0.528
-9.793 -9.021 -0.760
-10.052 -9.961 -0.090
-9.792 -9.021 -0.758
-8.128 -9.820 1.704
-10.384 -9.958 -0.424
-9.904 -9.267 -0.631
-7.671 -9.140 1.479
-9.715 -9.097 -0.606
-9.548 -9.960 0.410
-10.052 -9.961 -0.090
-10.048 -9.403 -0.633
-8.268 -9.187 0.937
-8.210 -9.187 0.996
-10.088 -9.392 -0.684
-9.565 -9.375 -0.178
-10.349 -9.334 -1.004
-8.259 -9.560 1.314
-10.349 -9.334 -1.004
-10.384 -9.958 -0.424
-5.796 -6.978 1.203
-10.142 -9.254 -0.880
-10.083 -9.389 -0.683
-9.991 -9.652 -0.324
-10.059 -9.074 -0.973
-9.794 -9.019 -0.762
-10.263 -9.457 -0.800
-8.811 -9.884 1.068
-10.384 -9.958 -0.424
-9.715 -9.089 -0.613
-9.793 -9.004 -0.777
-8.809 -9.884 1.070
-10.318 -9.458 -0.853
-10.096 -9.017 -1.066
-10.497 -9.277 -1.211
-8.174 -9.184 1.028
-8.047 -9.271 1.232
-10.349 -9.335 -1.004
-10.384 -9.958 -0.424
-10.540 -9.296 -1.234
-8.265 -9.186 0.939
-10.540 -9.296 -1.234
-9.794 -9.019 -0.763
-10.051 -9.961 -0.090
-7.038 -9.047 2.017
-9.710 -9.063 -0.633
-9.792 -9.032 -0.747
-9.719 -9.121 -0.585
-8.295 -9.327 1.045
-6.398 -8.031 1.627
-10.384 -9.958 -0.424
-8.268 -9.187 0.938
-8.210 -9.819 1.621
-8.273 -9.786 1.531
-10.107 -9.060 -1.035
-9.284 -9.347 0.076
-9.167 -9.741 0.593
-8.120 -9.182 1.081
-8.253 -9.180 0.946
-8.477 -9.802 1.328
-8.253 -9.180 0.946
-10.052 -9.962 -0.090
-9.714 -9.095 -0.606
-8.266 -9.186 0.939
-8.809 -9.882 1.067
-8.810 -9.884 1.069
-8.266 -9.186 0.939
-8.266 -9.186 0.939
-9.729 -9.084 -0.632
-10.385 -9.958 -0.424
-8.792 -9.849 1.056
-10.211 -9.479 -0.725
-9.064 -9.653 0.544
-8.805 -9.879 1.069
-8.254 -9.181 0.945
-8.254 -9.181 0.945
-6.148 -7.781 1.620
-9.792 -9.019 -0.761
-8.810 -9.884 1.069
-8.266 -9.186 0.939
-5.775 -6.943 1.185
-5.730 -6.886 1.176
-8.266 -9.186 0.939
-5.510 -6.783 1.292
-8.254 -9.169 0.933
-8.303 -9.186 0.902
-8.266 -9.186 0.939
-9.734 -9.107 -0.614
-8.266 -9.186 0.939
-6.050 -7.504 1.392
-8.809 -9.884 1.069
-5.468 -6.935 1.491
-8.293 -9.259 0.977
-8.253 -9.180 0.945
-8.253 -9.179 0.945
-8.290 -9.180 0.909
-7.977 -9.493 1.519
-8.290 -9.180 0.909
-8.804 -9.878 1.068
-8.253 -9.180 0.946
-5.460 -6.913 1.476
-8.208 -9.783 1.594
-8.174 -9.183 1.024
-7.461 -9.541 2.087
-7.957 -9.645 1.703
-8.704 -9.820 1.119
-8.253 -9.180 0.945
-8.290 -9.180 0.908
-8.804 -9.877 1.067
-7.985 -9.493 1.517
-5.546 -6.602 1.075
-8.253 -9.180 0.945
-9.780 -9.393 -0.378
-5.552 -6.608 1.075
-8.810 -9.884 1.068
-8.266 -9.186 0.938
-8.304 -9.187 0.902
-8.267 -9.186 0.938
-8.265 -9.177 0.932
-5.948 -7.569 1.555
-8.267 -9.186 0.938
-8.267 -9.186 0.938
-8.304 -9.187 0.902
-8.304 -9.187 0.902
-8.267 -9.186 0.938
-8.267 -9.186 0.938
-5.575 -6.275 0.723
-8.267 -9.186 0.938
-8.267 -9.186 0.939
-7.152 -9.494 2.314
-8.267 -9.186 0.938
-8.810 -9.884 1.068
-8.430 -9.493 1.057
-5.574 -6.269 0.717
-8.304 -9.187 0.902
-8.810 -9.884 1.068
-5.465 -6.941 1.498
-9.793 -9.001 -0.779
-8.391 -9.320 0.941
-6.889 -7.723 0.857
-5.910 -6.591 0.699
-8.314 -9.322 1.015
-8.391 -9.320 0.942
-8.387 -9.637 1.264
-9.301 -7.829 -1.487
-5.910 -6.591 0.699
-9.186 -7.715 -1.460
-8.326 -9.323 1.010
-9.656 -8.920 -0.737
-9.790 -8.946 -0.830
-5.910 -6.591 0.699
-5.910 -6.591 0.699
-6.938 -7.726 0.811
-9.143 -7.779 -1.367
-8.326 -9.323 1.010
-8.327 -9.322 1.009
-5.910 -6.591 0.700
-8.382 -9.539 1.166
-5.910 -6.591 0.700
-8.900 -9.767 0.864
-6.953 -7.776 0.840
-6.959 -7.748 0.810
-8.088 -9.637 1.559
-9.797 -9.262 -0.526
-6.430 -5.700 -0.709
-6.954 -7.747 0.813
-9.797 -9.263 -0.526
-9.627 -9.273 -0.347
-9.111 -7.705 -1.394
-6.889 -7.723 0.857
-5.910 -6.591 0.699
-7.562 -7.965 0.415
-9.797 -9.262 -0.526
-6.957 -7.760 0.824
-6.959 -7.766 0.828
-6.956 -7.764 0.826
-9.797 -9.262 -0.527
-9.797 -9.262 -0.527
-9.206 -7.822 -1.380
-6.889 -7.723 0.858
-5.910 -6.591 0.699
-7.404 -9.107 1.688
-9.794 -9.008 -0.773
-4.777 -5.605 0.838
-8.391 -9.320 0.942
-5.910 -6.591 0.699
-8.326 -9.323 1.010
-5.910 -6.591 0.699
-8.327 -9.323 1.010
-5.094 -5.573 0.501
-8.291 -9.319 1.030
-6.922 -7.889 0.969
-9.853 -9.265 -0.580
-5.910 -6.593 0.702
-9.058 -7.703 -1.342
-8.297 -9.377 1.093
-7.563 -7.963 0.412
-5.910 -6.591 0.700
-9.797 -9.263 -0.526
-6.953 -7.771 0.836
-6.959 -7.758 0.818
-9.422 -8.236 -1.193
-5.910 -6.591 0.700
-9.788 -9.123 -0.655
-5.910 -6.591 0.699
-8.326 -9.323 1.010
-5.513 -7.789 2.287
-5.910 -6.591 0.700
-8.258 -9.558 1.313
-8.392 -9.319 0.940
-9.150 -7.776 -1.368
-6.304 -6.767 0.479
-6.303 -6.774 0.488
-6.959 -7.758 0.818
-8.095 -9.643 1.561
-8.899 -9.761 0.859
-9.627 -9.276 -0.345
-5.910 -6.591 0.700
-6.888 -7.704 0.840
-5.910 -6.591 0.700
-7.982 -9.241 1.264
-8.900 -9.764 0.861
-8.335 -9.390 1.065
-5.504 -7.788 2.299
-9.245 -7.790 -1.448
-8.899 -9.759 0.856
-9.853 -9.265 -0.580
-8.899 -9.761 0.858
-9.797 -9.263 -0.526
-8.215 -9.336 1.097
-8.273 -9.270 1.002
-6.889 -7.723 0.858
-5.910 -6.591 0.700
-5.910 -6.591 0.700
-8.461 -9.752 1.287
-5.910 -6.591 0.700
-8.326 -9.325 1.013
-5.910 -6.591 0.700
-4.867 -6.425 1.566
-5.737 -6.498 0.784
-6.889 -7.723 0.858
-9.703 -8.972 -0.718
-8.255 -9.559 1.318
-6.635 -7.476 0.849
-8.327 -9.314 1.000
-6.876 -8.069 1.199
-9.699 -9.049 -0.643
-8.900 -9.761 0.858
-6.889 -7.723 0.858
-5.910 -6.591 0.700
-4.469 -5.460 1.000
-6.827 -7.610 0.805
-8.899 -9.762 0.860
-10.263 -9.457 -0.800
-9.629 -9.271 -0.351
-8.807 -8.737 -0.060
-5.512 -7.731 2.227
-9.047 -7.745 -1.301
-6.888 -7.728 0.864
-7.911 -9.571 1.675
-6.889 -7.722 0.857
-7.991 -9.332 1.354
-5.910 -6.591 0.700
-9.206 -7.794 -1.413
-5.515 -7.293 1.804
-8.891 -9.750 0.856
-5.910 -6.591 0.700
-5.910 -6.591 0.700
-8.325 -9.322 1.011
-5.910 -6.591 0.700
-8.301 -9.497 1.206
-6.889 -7.721 0.856
-8.888 -9.744 0.853
-9.407 -8.245 -1.165
-8.890 -9.750 0.856
-9.263 -8.327 -0.937
-8.324 -9.331 1.020
-8.325 -9.322 1.010
-5.910 -6.591 0.700
-8.321 -9.341 1.033
-9.792 -8.969 -0.811
-6.865 -7.969 1.116
-9.779 -8.937 -0.829
-5.910 -6.591 0.700
-5.910 -6.591 0.700
-5.910 -6.591 0.699
-8.301 -9.497 1.206
-6.960 -7.758 0.817
-6.108 -5.691 -0.419
-8.124 -9.631 1.522
-6.925 -7.751 0.845
-6.308 -6.754 0.463
-9.818 -9.248 -0.562
-9.457 -8.508 -0.948
-8.327 -9.306 0.993
-8.328 -9.314 0.999
-5.911 -6.590 0.698
-5.911 -6.590 0.698
-8.858 -9.697 0.835
-6.889 -7.723 0.858
-6.887 -7.724 0.860
-7.558 -7.958 0.413
-9.640 -9.261 -0.373
-8.326 -9.317 1.004
-8.857 -9.697 0.836
-7.749 -9.405 1.653
-9.384 -8.230 -1.149
-6.845 -7.706 0.888
-9.640 -9.258 -0.376
-6.788 -6.271 -0.494
-7.557 -7.947 0.404
-5.911 -6.590 0.699
-8.326 -9.317 1.004
-9.816 -9.012 -0.791
-9.639 -9.258 -0.376
-9.614 -9.213 -0.396
-6.957 -7.755 0.818
-9.707 -8.967 -0.731
-8.327 -9.318 1.004
-8.327 -9.313 0.999
-7.792 -9.247 1.434
-5.439 -6.258 0.834
-5.911 -6.590 0.698
-8.976 -7.726 -1.237
-5.911 -6.590 0.698
-8.327 -9.316 1.002
-5.911 -6.590 0.698
-8.291 -9.558 1.281
-5.911 -6.590 0.698
-9.470 -8.496 -0.991
-6.833 -7.698 0.886
-4.944 -6.754 1.828
-6.889 -7.721 0.857
-9.815 -9.000 -0.802
-8.327 -9.316 1.002
-8.291 -9.558 1.281
-6.888 -7.721 0.857
-9.815 -9.004 -0.798
-6.889 -7.714 0.849
-6.888 -7.722 0.858
-4.897 -6.572 1.696
-8.327 -9.306 0.991
-6.701 -7.720 1.041
-7.618 -9.134 1.529
-6.889 -7.721 0.856
-6.888 -7.720 0.856
-8.327 -9.315 1.001
-8.327 -9.316 1.002
-8.209 -9.291 1.084
-8.327 -9.316 1.002
-5.594 -6.603 1.024
-8.328 -9.314 1.001
-8.327 -9.316 1.002
-5.911 -6.590 0.698
-9.685 -8.886 -0.792
-5.911 -6.590 0.698
-9.733 -9.073 -0.647
-9.478 -8.812 -0.661
-5.911 -6.590 0.698
-8.327 -9.316 1.002
-8.326 -9.318 1.005
-5.911 -6.590 0.698
-9.713 -8.957 -0.744
-9.816 -9.003 -0.800
-6.735 -7.863 1.148
-6.889 -7.722 0.857
-7.909 -9.274 1.376
-6.888 -7.724 0.859
-5.032 -6.914 1.886
-5.911 -6.590 0.698
-5.911 -6.590 0.698
-5.469 -6.302 0.820
-5.705 -6.284 0.587
-9.417 -8.246 -1.171
-5.911 -6.590 0.698
-8.325 -9.327 1.015
-7.984 -9.332 1.361
-8.249 -9.495 1.262
-5.276 -7.381 2.127
-8.307 -9.352 1.059
-5.306 -7.307 2.011
-5.911 -6.590 0.698
-8.327 -9.316 1.002
-5.794 -6.588 0.812
-8.327 -9.316 1.003
-9.874 -9.250 -0.615
-9.058 -7.722 -1.326
-5.910 -6.594 0.702
-6.888 -7.722 0.857
-6.888 -7.722 0.857
-7.925 -9.284 1.369
-6.888 -7.725 0.861
-9.452 -8.368 -1.089
-9.813 -9.015 -0.785
-5.910 -6.591 0.699
-5.910 -6.590 0.699
-8.246 -9.421 1.189
-9.732 -9.057 -0.663
-6.815 -7.645 0.835
-9.639 -9.259 -0.375
-9.732 -9.064 -0.656
-8.327 -9.316 1.003
-7.984 -9.328 1.356
-9.615 -8.906 -0.733
-6.313 -5.454 -0.836
-6.153 -5.602 -0.533
-6.948 -7.712 0.782
-6.954 -7.763 0.828
-9.639 -9.259 -0.374
-9.431 -8.226 -1.214
-5.910 -6.590 0.699
-5.910 -6.591 0.699
-5.910 -6.590 0.699
-5.910 -6.591 0.699
-8.320 -9.303 0.995
-9.732 -9.074 -0.645
-4.549 -5.659 1.130
-5.910 -6.590 0.699
-5.791 -6.581 0.808
-5.791 -6.593 0.820
-8.289 -9.559 1.284
-5.910 -6.590 0.699
-5.910 -6.591 0.699
-5.910 -6.591 0.699
-5.910 -6.592 0.700
-8.874 -7.718 -1.144
-5.910 -6.590 0.699
-9.483 -8.897 -0.584
-8.327 -9.318 1.004
-9.734 -9.106 -0.616
-9.444 -8.599 -0.843
-6.888 -7.721 0.857
-5.910 -6.591 0.699
-5.523 -7.755 2.238
-8.327 -9.316 1.003
-7.542 -8.927 1.391
-6.888 -7.722 0.858
-5.910 -6.590 0.699
-6.888 -7.721 0.857
-4.861 -6.464 1.622
-6.888 -7.721 0.856
-9.523 -8.896 -0.615
-8.326 -9.315 1.002
-5.910 -6.590 0.699
-5.118 -6.168 1.066
-8.287 -9.528 1.250
-5.910 -6.591 0.699
-6.888 -7.722 0.857
-9.428 -8.632 -0.786
-8.326 -9.316 1.003
-6.115 -6.880 0.768
-5.910 -6.590 0.699
-4.750 -6.105 1.375
-5.910 -6.591 0.699
-9.732 -9.061 -0.659
-6.184 -5.531 -0.636
-6.214 -5.525 -0.687
-9.482 -8.596 -0.894
-9.819 -9.406 -0.406
-6.931 -8.332 1.409
-8.925 -7.754 -1.163
-6.949 -7.748 0.818
-6.230 -6.763 0.550
-6.960 -7.760 0.820
-8.901 -8.652 -0.249
-4.791 -6.282 1.501
-7.252 -9.574 2.336
-6.791 -7.534 0.740
-9.584 -8.870 -0.713
-5.910 -6.591 0.699
-7.695 -9.268 1.557
-6.888 -7.722 0.857
-6.888 -7.722 0.857
-8.326 -9.317 1.005
-5.910 -6.591 0.699
-9.471 -8.481 -0.988
-6.888 -7.722 0.858
-5.910 -6.591 0.699
-9.708 -8.926 -0.774
-4.978 -6.754 1.795
-7.949 -9.228 1.287
-5.910 -6.591 0.699
-8.286 -9.557 1.286
-6.985 -7.853 0.887
-5.910 -6.591 0.699
-7.298 -8.746 1.460
-5.910 -6.591 0.699
-5.910 -6.591 0.699
-5.910 -6.591 0.699
-6.886 -7.725 0.861
-9.450 -8.669 -0.785
-9.600 -8.827 -0.772
-5.909 -6.591 0.700
-6.888 -7.721 0.857
-8.615 -9.269 0.662
-5.310 -7.337 2.040
-7.904 -9.548 1.656
-5.910 -6.591 0.699
-9.318 -7.957 -1.366
-9.728 -9.085 -0.633
-5.910 -6.591 0.699
-9.095 -7.791 -1.295
-6.888 -7.722 0.858
-9.683 -8.854 -0.815
-9.730 -9.086 -0.631
-9.640 -9.261 -0.373
-9.690 -9.104 -0.576
-5.910 -6.591 0.699
-8.284 -9.563 1.293
-8.326 -9.317 1.005
-6.824 -7.660 0.860
-6.888 -7.722 0.857
-6.886 -7.705 0.842
-7.918 -9.597 1.686
-5.910 -6.591 0.699
-7.919 -9.314 1.396
-5.793 -6.588 0.813
-5.910 -6.591 0.699
-5.910 -6.591 0.700
-8.326 -9.316 1.003
-9.163 -7.832 -1.329
-6.889 -7.721 0.856
-6.889 -7.721 0.856
-5.911 -6.591 0.698
-8.290 -9.559 1.284
-5.911 -6.590 0.698
-9.727 -9.084 -0.632
-8.327 -9.314 1.001
-5.781 -6.602 0.836
-8.288 -9.558 1.284
-7.886 -9.583 1.714
-8.326 -9.320 1.007
-6.889 -7.723 0.858
-9.727 -9.040 -0.675
-9.639 -9.261 -0.373
-8.166 -9.186 1.038
-5.912 -6.591 0.697
-7.596 -8.705 1.124
-5.911 -6.590 0.698
-5.096 -5.570 0.496
-9.696 -8.958 -0.724
-9.818 -9.406 -0.406
-5.911 -6.591 0.699
-8.206 -9.416 1.222
-9.414 -8.368 -1.044
-5.911 -6.590 0.698
-5.911 -6.590 0.698
-4.905 -6.502 1.598
-8.325 -9.307 0.994
-6.335 -7.366 1.045
-5.911 -6.590 0.698
-8.287 -9.559 1.286
-6.889 -7.721 0.856
-4.768 -6.156 1.400
-5.510 -6.094 0.596
-6.859 -7.830 0.981
-5.794 -6.588 0.812
-8.326 -9.317 1.004
-8.287 -9.566 1.294
-4.975 -6.732 1.775
-9.641 -9.261 -0.374
-9.166 -7.852 -1.311
-6.889 -7.722 0.857
-8.326 -9.317 1.004
-6.750 -7.922 1.148
-5.793 -6.588 0.813
-8.326 -9.318 1.005
-4.899 -6.597 1.717
-8.326 -9.321 1.008
-8.326 -9.318 1.005
-6.889 -7.722 0.857
-7.560 -7.960 0.412
-6.308 -6.761 0.470
-9.646 -8.970 -0.666
-8.287 -9.560 1.287
-5.401 -7.476 2.096
-5.465 -7.620 2.160
-5.911 -6.591 0.698
-8.326 -9.319 1.006
-9.425 -8.532 -0.879
-8.327 -9.319 1.006
-6.889 -7.721 0.856
-6.889 -7.722 0.857
-6.889 -7.722 0.856
-5.794 -6.588 0.812
-9.728 -9.110 -0.606
-5.911 -6.590 0.698
-7.901 -9.549 1.662
-6.889 -7.721 0.856
-5.794 -6.588 0.812
-6.889 -7.722 0.857
-8.089 -9.180 1.108
-5.202 -7.330 2.139
-9.425 -8.327 -1.105
-5.911 -6.590 0.698
-7.966 -9.630 1.676
-6.889 -7.722 0.857
-5.596 -6.610 1.029
-9.674 -9.084 -0.576
-9.728 -9.084 -0.632
-9.629 -8.953 -0.712
-6.921 -8.031 1.103
-6.951 -8.252 1.317
-6.889 -7.722 0.857
-6.889 -7.722 0.857
-8.287 -9.560 1.287
-9.444 -8.439 -1.008
-5.921 -6.494 0.589
-5.364 -5.425 0.079
-5.942 -6.505 0.578
-5.942 -6.505 0.578
-7.128 -7.968 0.836
-6.386 -6.557 0.189
-5.944 -6.506 0.578
-7.157 -7.965 0.805
-7.157 -7.965 0.805
-6.386 -6.558 0.189
-7.157 -7.965 0.805
-5.944 -6.505 0.577
-5.040 -5.228 0.209
-7.157 -7.965 0.805
-5.944 -6.506 0.577
-5.944 -6.506 0.577
-5.943 -6.507 0.579
-7.147 -7.967 0.814
-5.150 -5.985 0.834
-5.944 -6.506 0.578
-7.157 -7.969 0.809
-7.156 -7.970 0.810
-5.944 -6.505 0.577
-5.880 -6.484 0.620
-5.944 -6.506 0.578
-5.882 -6.501 0.634
-7.050 -7.822 0.767
-7.085 -8.066 0.972
-5.944 -6.505 0.577
-5.149 -5.977 0.826
-7.157 -7.965 0.805
-7.157 -7.962 0.802
-7.157 -7.966 0.806
-5.944 -6.507 0.579
-7.150 -7.966 0.815
-5.943 -6.497 0.569
-5.365 -5.776 0.424
-7.146 -7.958 0.808
-7.157 -7.965 0.805
-5.109 -5.991 0.879
-5.109 -5.979 0.869
-5.943 -6.505 0.577
-6.657 -7.415 0.717
-4.927 -5.039 0.134
-7.157 -7.965 0.805
-7.128 -7.968 0.836
-5.943 -6.510 0.582
-5.943 -6.509 0.581
-5.040 -5.227 0.209
-5.943 -6.504 0.576
-7.157 -7.965 0.805
-7.128 -7.968 0.836
-7.128 -7.968 0.836
-5.943 -6.506 0.579
-5.944 -6.507 0.579
-5.881 -6.501 0.635
-7.155 -7.947 0.790
-7.157 -7.966 0.806
-7.157 -7.965 0.805
-5.941 -6.511 0.586
-7.128 -7.965 0.833
-5.912 -6.517 0.624
-7.128 -7.968 0.836
-7.128 -7.967 0.835
-7.128 -7.968 0.836
-7.157 -7.962 0.802
-7.157 -7.965 0.805
-5.109 -5.987 0.877
-7.128 -7.968 0.836
-5.111 -5.979 0.867
-7.128 -7.969 0.838
-7.128 -7.965 0.833
-5.875 -6.485 0.623
-5.054 -6.855 1.801
-5.943 -6.504 0.576
-6.657 -7.415 0.717
-5.221 -6.846 1.624
-6.657 -7.415 0.717
-5.943 -6.513 0.585
-7.128 -7.965 0.834
-6.657 -7.412 0.715
-5.944 -6.505 0.577
-7.128 -7.972 0.840
-5.941 -6.516 0.590
-7.128 -7.968 0.836
-7.128 -7.968 0.836
-7.157 -7.965 0.805
-5.939 -6.498 0.576
-5.040 -5.209 0.190
-7.128 -7.961 0.829
-5.185 -6.847 1.662
-7.128 -7.967 0.835
-5.413 -6.455 1.058
-5.158 -5.635 0.489
-6.531 -8.126 1.587
-5.040 -5.212 0.194
-5.220 -6.846 1.624
-5.184 -6.847 1.662
-6.736 -8.024 1.286
-5.220 -6.846 1.624
-5.882 -6.501 0.635
-7.114 -7.993 0.881
-5.943 -6.506 0.578
-6.736 -8.026 1.288
-5.943 -6.502 0.574
-7.128 -7.968 0.836
-5.054 -6.855 1.801
-5.684 -6.379 0.709
-5.040 -5.210 0.191
-5.220 -6.846 1.624
-6.397 -7.474 1.042
-5.943 -6.503 0.575
-5.054 -6.855 1.801
-5.220 -6.846 1.624
-6.411 -8.196 1.785
-5.158 -5.626 0.481
-5.109 -5.983 0.873
-4.838 -6.816 1.991
-4.686 -6.598 1.928
-4.438 -5.808 1.387
-5.426 -6.858 1.431
-5.376 -6.150 0.777
-5.436 -6.482 1.061
-5.422 -5.703 0.298
-5.943 -6.506 0.578
-5.184 -6.847 1.663
-5.366 -5.758 0.407
-5.420 -6.145 0.729
-5.943 -6.505 0.578
-7.147 -7.923 0.773
-6.737 -8.022 1.284
-5.221 -6.845 1.624
-4.107 -6.698 2.602
-5.943 -6.506 0.579
-5.220 -6.846 1.624
-5.421 -6.478 1.073
-6.757 -8.021 1.263
-7.129 -7.979 0.846
-4.646 -6.599 1.968
-5.149 -6.792 1.657
-5.108 -6.005 0.894
-7.128 -7.968 0.836
-5.221 -6.846 1.624
-5.466 -6.482 1.032
-6.737 -8.023 1.285
-4.432 -5.154 0.745
-6.932 -6.700 -0.211
-5.809 -6.180 0.386
-6.395 -6.726 0.351
-7.122 -7.969 0.843
-6.873 -6.701 -0.152
-5.738 -6.067 0.347
-7.000 -7.551 0.533
-7.122 -7.969 0.843
-4.665 -6.656 2.006
-5.713 -6.420 0.720
-5.615 -6.885 1.268
-5.615 -6.885 1.268
-5.615 -6.885 1.268
-5.656 -6.551 0.908
-5.439 -6.899 1.459
-5.615 -6.885 1.268
-8.383 -8.998 0.612
-5.900 -6.478 0.589
-6.874 -6.703 -0.151
-6.932 -6.706 -0.206
-7.122 -7.971 0.845
-6.876 -6.711 -0.146
-6.395 -6.726 0.351
-5.627 -6.549 0.935
-7.122 -7.969 0.843
-5.666 -6.162 0.509
-5.630 -6.548 0.931
-5.614 -6.884 1.269
-5.196 -5.268 0.096
-6.460 -6.727 0.288
-6.134 -6.619 0.503
-5.438 -6.898 1.460
-6.542 -8.128 1.577
-6.844 -6.745 -0.082
-6.481 -6.602 0.123
-7.122 -7.969 0.843
-5.614 -6.884 1.269
-8.651 -9.226 0.584
-7.989 -8.885 0.913
-8.097 -8.994 0.888
-6.116 -6.615 0.518
-6.730 -8.023 1.292
-7.121 -7.968 0.843
-5.614 -6.884 1.269
-6.932 -6.706 -0.206
-7.122 -7.969 0.843
-6.664 -7.422 0.716
-6.932 -6.706 -0.206
-6.423 -8.196 1.775
-5.438 -6.899 1.460
-5.649 -6.616 0.986
-6.663 -7.421 0.717
-6.875 -6.700 -0.154
-6.941 -7.862 0.897
-5.129 -6.152 1.022
-7.122 -7.969 0.844
-7.122 -7.969 0.843
-6.873 -6.700 -0.153
-5.793 -6.072 0.295
-7.122 -7.969 0.844
-6.460 -6.728 0.288
-4.977 -5.514 0.559
-5.726 -6.342 0.626
-9.716 -9.396 -0.315
-5.418 -6.480 1.077
-7.123 -7.968 0.842
-5.681 -6.378 0.710
-5.234 -6.803 1.582
-5.055 -6.855 1.800
-4.967 -6.838 1.884
-4.969 -6.815 1.859
-4.511 -6.621 2.127
-5.421 -5.710 0.306
-5.682 -6.370 0.701
-5.942 -6.505 0.578
-6.532 -8.126 1.586
-4.688 -6.598 1.926
-5.013 -5.272 0.277
-6.444 -8.147 1.697
-5.919 -6.554 0.652
-7.325 -8.514 1.193
-5.934 -6.502 0.583
-5.483 -6.480 1.013
-7.157 -7.964 0.804
-5.019 -5.313 0.312
-4.689 -6.599 1.926
-4.463 -6.617 2.172
-5.873 -6.495 0.637
-4.965 -6.195 1.237
-5.682 -6.377 0.708
-6.440 -8.143 1.697
-5.941 -6.506 0.580
-5.671 -6.271 0.612
-5.157 -5.648 0.503
-5.689 -6.352 0.674
-6.657 -7.416 0.718
-4.963 -6.840 1.891
-5.994 -8.197 2.202
-5.221 -6.845 1.623
-6.738 -8.022 1.283
-6.709 -8.025 1.314
-5.677 -6.272 0.607
-4.688 -6.599 1.927
-4.511 -6.621 2.126
-5.185 -6.847 1.661
-6.385 -6.557 0.190
-5.221 -6.846 1.624
-4.882 -6.806 1.938
-5.054 -6.855 1.801
-5.220 -6.846 1.624
-5.220 -6.846 1.624
-5.102 -5.949 0.847
-5.490 -6.489 1.015
-5.403 -6.500 1.105
-5.943 -6.506 0.578
-5.116 -5.951 0.834
-6.758 -8.043 1.286
-7.315 -8.777 1.446
-4.762 -6.209 1.452
-4.688 -6.599 1.927
-5.447 -6.472 1.040
-5.489 -6.491 1.019
-7.129 -7.968 0.836
-5.426 -6.475 1.063
-5.362 -6.566 1.221
-7.831 -9.229 1.405
-6.709 -8.026 1.316
-5.417 -5.690 0.288
-4.963 -6.789 1.837
-5.413 -5.753 0.352
-7.407 -9.016 1.623
-5.677 -6.217 0.552
-6.531 -8.126 1.587
-5.104 -6.859 1.754
-6.442 -8.145 1.697
-5.409 -6.479 1.086
-5.221 -6.845 1.623
-6.737 -8.011 1.274
-5.253 -6.140 0.894
-5.880 -6.501 0.637
-5.268 -6.119 0.860
-5.682 -6.378 0.710
-5.222 -6.839 1.616
-4.968 -6.817 1.862
-6.385 -6.557 0.190
-5.420 -6.480 1.075
-5.220 -6.846 1.624
-7.129 -7.968 0.836
-5.419 -6.145 0.730
-5.683 -6.376 0.707
-7.960 -9.396 1.453
-5.159 -5.673 0.525
-4.963 -6.833 1.884
-5.483 -6.485 1.018
-6.529 -8.126 1.589
-4.964 -6.817 1.866
-8.569 -9.263 0.702
-5.681 -6.375 0.707
-5.414 -6.486 1.088
-4.513 -6.621 2.124
-5.223 -6.845 1.621
-6.530 -8.126 1.588
-4.129 -5.984 1.862
-5.222 -6.845 1.622
-5.056 -6.854 1.799
-6.738 -8.023 1.284
-3.121 -5.406 2.305
-7.127 -7.966 0.836
-4.849 -5.964 1.124
-6.145 -6.637 0.502
-6.698 -8.033 1.333
-5.383 -6.472 1.104
-4.967 -6.822 1.869
-7.830 -9.229 1.406
-5.039 -5.208 0.190
-5.688 -6.288 0.613
-4.967 -6.818 1.864
-4.967 -6.817 1.863
-7.354 -9.015 1.660
-6.708 -8.027 1.317
-4.892 -6.008 1.128
-5.937 -6.503 0.581
-5.152 -5.720 0.577
-6.758 -8.024 1.265
-6.240 -8.636 2.412
-5.412 -5.753 0.354
-5.685 -6.295 0.621
-8.563 -9.258 0.703
-6.323 -6.557 0.250
-7.829 -9.231 1.407
-5.149 -5.985 0.835
-5.943 -6.506 0.579
-4.345 -5.727 1.386
-4.889 -5.976 1.096
-5.420 -6.479 1.074
-5.439 -5.689 0.271
-6.657 -7.415 0.717
-4.688 -6.602 1.930
-6.738 -8.022 1.283
-5.943 -6.505 0.578
-4.511 -6.621 2.126
-7.831 -9.225 1.399
-8.568 -9.264 0.704
-4.513 -6.620 2.123
-4.155 -5.965 1.817
-5.267 -6.120 0.862
-5.080 -5.566 0.510
-4.835 -6.812 1.990
-4.835 -6.813 1.991
-5.419 -6.478 1.075
-4.896 -5.972 1.088
-6.737 -8.024 1.286
-5.941 -6.504 0.579
-4.967 -6.818 1.864
-4.511 -6.621 2.127
-5.221 -6.845 1.624
-7.150 -7.923 0.773
-5.221 -6.845 1.624
-5.679 -6.277 0.610
-5.940 -6.505 0.580
-4.895 -5.961 1.078
-4.688 -6.598 1.926
-7.593 -8.920 1.334
-5.415 -6.481 1.083
-5.679 -6.259 0.592
-4.896 -5.984 1.100
-4.896 -5.976 1.092
-5.685 -6.302 0.628
-5.221 -6.845 1.624
-5.409 -7.752 2.349
-5.409 -7.749 2.347
-5.409 -7.752 2.349
-5.404 -7.730 2.332
-6.368 -6.648 0.301
-5.489 -7.792 2.315
-6.361 -6.651 0.311
-5.341 -7.304 1.971
-5.371 -7.266 1.907
-5.489 -7.790 2.313
-5.366 -7.240 1.887
-5.339 -7.275 1.945
-6.924 -7.784 0.875
-6.952 -7.756 0.825
-9.633 -9.232 -0.396
-5.386 -7.478 2.094
-5.411 -7.747 2.341
-5.596 -6.602 1.022
-5.412 -7.753 2.347
-5.391 -7.754 2.369
-5.412 -7.753 2.347
-5.065 -7.118 2.069
-4.602 -6.102 1.508
-5.412 -7.750 2.344
-5.605 -7.798 2.206
-5.316 -7.702 2.394
-5.589 -6.603 1.029
-5.535 -7.734 2.208
-5.350 -7.734 2.397
-5.445 -7.809 2.377
-5.445 -7.808 2.376
-5.555 -7.459 1.926
-5.320 -7.704 2.389
-5.384 -7.736 2.364
-5.445 -7.809 2.377
-5.325 -7.715 2.396
-5.345 -7.708 2.369
-5.325 -7.715 2.396
-5.424 -7.809 2.398
-5.325 -7.715 2.396
-4.965 -7.001 2.010
-5.346 -7.712 2.370
-4.593 -6.084 1.499
-5.016 -7.114 2.113
-5.239 -7.162 1.935
-5.590 -6.603 1.028
-5.346 -7.713 2.372
-5.590 -6.603 1.028
-5.346 -7.716 2.375
-4.588 -6.085 1.502
-5.423 -7.810 2.399
-5.423 -7.811 2.401
-5.555 -7.456 1.923
-5.346 -7.713 2.372
-5.325 -7.715 2.396
-4.594 -6.109 1.523
-5.335 -7.715 2.386
-5.608 -7.774 2.174
-5.591 -7.812 2.235
-5.709 -7.761 2.057
-5.590 -6.603 1.028
-5.346 -7.712 2.372
-5.339 -7.711 2.377
-4.583 -6.071 1.494
-5.444 -7.808 2.378
-5.555 -7.456 1.923
-5.289 -7.707 2.429
-5.321 -7.698 2.382
-5.443 -7.811 2.381
-4.992 -7.115 2.138
-5.591 -7.812 2.235
-5.133 -7.627 2.503
-5.490 -7.340 1.872
-5.396 -7.791 2.398
-5.346 -7.712 2.371
-5.590 -6.602 1.028