-6.773 -7.777 1.009
-8.598 -8.308 -0.277
-6.666 -7.833 1.179
-7.343 -8.410 1.082
-7.730 -7.878 0.161
-7.770 -8.064 0.308
-7.343 -8.410 1.082
-6.199 -8.037 1.853
-8.608 -8.306 -0.290
-6.199 -8.037 1.853
-7.770 -8.064 0.308
-7.770 -8.064 0.308
-7.730 -7.878 0.161
-7.343 -8.410 1.082
-7.730 -7.878 0.161
-7.723 -8.133 0.424
-8.608 -8.306 -0.290
-6.199 -8.037 1.853
-8.608 -8.306 -0.290
-7.730 -7.878 0.161
-7.663 -7.860 0.212
-7.730 -7.878 0.161
-6.199 -8.037 1.853
-7.343 -8.410 1.082
-7.047 -8.070 1.037
-7.343 -8.410 1.082
-7.310 -8.193 0.897
-8.608 -8.306 -0.290
-6.653 -7.785 1.145
-8.608 -8.306 -0.290
-7.310 -8.193 0.897
-7.723 -8.133 0.424
-7.723 -8.133 0.424
-7.730 -7.878 0.161
-7.310 -8.193 0.897
-8.608 -8.306 -0.290
-7.343 -8.410 1.082
-6.779 -7.776 1.002
-7.663 -7.860 0.212
-7.663 -7.860 0.212
-7.310 -8.193 0.897
-7.343 -8.410 1.082
-8.608 -8.306 -0.290
-8.608 -8.306 -0.290
-7.770 -8.064 0.308
-7.105 -6.929 -0.162
-6.779 -7.776 1.002
-7.663 -7.860 0.212
-6.779 -7.776 1.002
-6.653 -7.785 1.145
-6.779 -7.776 1.002
-7.730 -7.878 0.161
-7.663 -7.860 0.212
-7.730 -7.878 0.161
-8.608 -8.306 -0.290
-6.914 -7.296 0.396
-7.770 -8.064 0.308
-7.770 -8.064 0.308
-7.723 -8.133 0.424
-7.730 -7.878 0.161
-6.779 -7.776 1.002
-7.770 -8.064 0.308
-7.730 -7.878 0.161
-7.770 -8.064 0.308
-7.310 -8.193 0.897
-6.644 -7.369 0.737
-7.770 -8.064 0.308
-6.651 -7.369 0.730
-7.664 -7.860 0.212
-8.609 -8.306 -0.290
-7.770 -8.064 0.308
-7.343 -8.410 1.082
-7.770 -8.064 0.308
-7.105 -6.929 -0.162
-8.609 -8.306 -0.290
-6.779 -7.776 1.002
-8.609 -8.306 -0.290
-7.343 -8.410 1.082
-7.664 -7.860 0.212
-8.609 -8.306 -0.290
-8.609 -8.306 -0.290
-7.343 -8.410 1.082
-7.343 -8.410 1.082
-7.587 -7.967 0.394
-8.609 -8.306 -0.290
-6.779 -7.776 1.002
-8.609 -8.306 -0.290
-6.779 -7.776 1.002
-6.779 -7.776 1.002
-6.651 -7.369 0.730
-7.730 -7.878 0.161
-8.609 -8.306 -0.290
-8.609 -8.306 -0.290
-7.343 -8.410 1.082
-6.779 -7.776 1.002
-7.587 -7.967 0.394
-7.770 -8.064 0.308
-7.723 -8.133 0.424
-7.310 -8.193 0.897
-7.587 -7.967 0.394
-7.770 -8.064 0.308
-7.770 -8.064 0.308
-6.653 -7.785 1.145
-8.609 -8.306 -0.290
-7.343 -8.410 1.082
-7.770 -8.064 0.308
-7.730 -7.878 0.161
-7.770 -8.064 0.308
-7.310 -8.193 0.897
-7.587 -7.967 0.394
-7.310 -8.193 0.897
-7.770 -8.064 0.308
-7.770 -8.064 0.308
-7.730 -7.878 0.161
-6.199 -8.037 1.853
-8.609 -8.306 -0.290
-7.664 -7.860 0.212
-7.587 -7.967 0.394
-6.914 -7.296 0.396
-6.914 -7.296 0.396
-7.310 -8.193 0.897
-6.655 -7.189 0.549
-7.664 -7.860 0.212
-6.651 -7.369 0.730
-8.609 -8.306 -0.290
-6.914 -7.296 0.396
-7.730 -7.878 0.161
-7.664 -7.860 0.212
-8.609 -8.306 -0.290
-7.770 -8.064 0.308
-7.770 -8.064 0.308
-7.664 -7.860 0.212
-8.609 -8.306 -0.290
-8.609 -8.306 -0.290
-6.914 -7.296 0.396
-6.046 -6.914 0.880
-7.587 -7.967 0.394
-8.609 -8.306 -0.290
-7.343 -8.410 1.082
-7.587 -7.967 0.394
-7.587 -7.967 0.394
-7.343 -8.410 1.082
-6.779 -7.776 1.002
-6.653 -7.785 1.145
-6.779 -7.776 1.002
-8.609 -8.306 -0.290
-7.723 -8.133 0.424
-6.779 -7.776 1.002
-7.730 -7.878 0.161
-6.779 -7.776 1.002
-7.664 -7.860 0.212
-7.730 -7.878 0.161
-6.653 -7.785 1.145
-7.106 -6.929 -0.162
-6.779 -7.776 1.002
-7.310 -8.193 0.897
-8.609 -8.306 -0.290
-6.651 -7.369 0.730
-6.779 -7.776 1.002
-7.723 -8.133 0.424
-8.609 -8.306 -0.290
-8.609 -8.306 -0.290
-8.609 -8.306 -0.290
-6.653 -7.785 1.145
-7.770 -8.064 0.308
-7.664 -7.860 0.212
-6.779 -7.776 1.002
-7.551 -7.853 0.317
-7.106 -6.929 -0.162
-6.653 -7.785 1.145
-6.651 -7.369 0.730
-7.723 -8.133 0.424
-8.609 -8.306 -0.290
-8.710 -8.287 -0.410
-7.045 -8.067 1.037
-6.671 -7.790 1.131
-7.731 -7.878 0.160
-8.625 -8.298 -0.315
-7.350 -8.408 1.072
-8.625 -8.298 -0.315
-8.625 -8.298 -0.315
-7.350 -8.408 1.072
-7.311 -8.193 0.896
-6.793 -7.768 0.981
-7.663 -7.860 0.212
-6.671 -7.790 1.131
-7.663 -7.860 0.212
-6.916 -7.296 0.395
-7.350 -8.408 1.072
-7.350 -8.408 1.072
-6.656 -7.189 0.547
-7.731 -7.878 0.160
-7.311 -8.193 0.896
-6.206 -8.039 1.848
-7.234 -8.100 0.880
-7.731 -7.878 0.160
-6.916 -7.296 0.395
-7.350 -8.408 1.072
-7.311 -8.193 0.896
-7.771 -8.063 0.306
-7.311 -8.193 0.896
-7.350 -8.408 1.072
-7.717 -7.881 0.176
-6.793 -7.768 0.981
-7.139 -6.931 -0.193
-8.625 -8.298 -0.315
-8.625 -8.298 -0.315
-7.350 -8.408 1.072
-8.625 -8.298 -0.315
-6.671 -7.790 1.131
-6.385 -7.139 0.768
-7.350 -8.408 1.072
-6.793 -7.768 0.981
-7.586 -7.967 0.396
-7.108 -6.928 -0.165
-7.350 -8.408 1.072
-5.664 -5.969 0.318
-6.794 -7.769 0.980
-7.732 -7.878 0.159
-6.794 -7.769 0.980
-8.627 -8.298 -0.316
-7.773 -8.063 0.304
-6.674 -7.788 1.127
-8.627 -8.298 -0.316
-6.794 -7.769 0.980
-6.915 -7.296 0.395
-7.312 -8.192 0.894
-7.664 -7.860 0.210
-7.773 -8.063 0.304
-7.586 -7.967 0.396
-6.794 -7.769 0.980
-8.627 -8.298 -0.316
-8.627 -8.298 -0.316
-7.350 -8.407 1.072
-6.667 -7.364 0.710
-6.667 -7.364 0.710
-7.312 -8.192 0.894
-7.773 -8.063 0.304
-6.794 -7.769 0.980
-8.627 -8.298 -0.316
-6.667 -7.364 0.710
-6.079 -6.185 0.119
-6.674 -7.788 1.127
-6.667 -7.364 0.710
-8.627 -8.298 -0.316
-8.627 -8.298 -0.316
-7.732 -7.878 0.159
-7.732 -7.878 0.159
-7.338 -8.411 1.089
-8.598 -8.308 -0.277
-6.911 -7.296 0.400
-7.584 -7.967 0.398
-8.598 -8.308 -0.277
-6.911 -7.296 0.400
-7.584 -7.967 0.398
-7.584 -7.967 0.398
-6.773 -7.777 1.009
-7.338 -8.411 1.089
-6.911 -7.296 0.400
-8.598 -8.308 -0.277
-6.773 -7.777 1.009
-6.773 -7.777 1.009
-7.105 -6.929 -0.161
-8.598 -8.308 -0.277
-6.911 -7.296 0.400
-7.584 -7.967 0.398
-7.584 -7.967 0.398
-7.307 -8.193 0.900
-7.767 -8.064 0.311
-7.596 -8.611 1.029
-6.645 -7.796 1.164
-7.338 -8.411 1.089
-8.598 -8.308 -0.277
-8.598 -8.308 -0.277
-7.767 -8.064 0.311
-8.598 -8.308 -0.277
-7.338 -8.411 1.089
-7.767 -8.064 0.311
-7.338 -8.411 1.089
-8.598 -8.308 -0.277
-6.911 -7.296 0.400
-6.911 -7.296 0.400
-7.307 -8.193 0.900
-7.729 -7.878 0.162
-7.662 -7.860 0.213
-7.338 -8.411 1.089
-6.040 -6.915 0.888
-7.307 -8.193 0.900
-7.105 -6.929 -0.161
-7.584 -7.967 0.398
-8.598 -8.308 -0.277
-5.326 -5.852 0.539
-5.664 -5.969 0.318
-8.600 -8.308 -0.279
-7.308 -8.192 0.898
-7.584 -7.967 0.398
-7.338 -8.411 1.088
-6.774 -7.777 1.009
-7.663 -7.860 0.212
-5.664 -5.969 0.318
-6.774 -7.777 1.009
-6.774 -7.777 1.008
-7.338 -8.411 1.088
-7.338 -8.411 1.088
-7.338 -8.411 1.088
-6.910 -7.296 0.400
-8.600 -8.308 -0.279
-6.209 -6.180 -0.015
-5.664 -5.969 0.318
-6.040 -6.915 0.888
-7.716 -7.881 0.177
-7.338 -8.411 1.088
-7.730 -7.878 0.161
-6.040 -6.915 0.888
-6.413 -6.818 0.419
-5.664 -5.969 0.318
-7.584 -7.967 0.398
-6.910 -7.296 0.400
-5.664 -5.969 0.318
-7.584 -7.967 0.398
-6.080 -6.185 0.119
-7.308 -8.192 0.898
-6.080 -6.185 0.119
-7.663 -7.860 0.212
-7.769 -8.064 0.309
-7.663 -7.860 0.212
-7.769 -8.064 0.309
-5.641 -5.997 0.369
-5.641 -5.997 0.369
-7.308 -8.192 0.898
-6.774 -7.777 1.008
-6.774 -7.777 1.009
-7.338 -8.411 1.088
-6.910 -7.296 0.400
-6.910 -7.296 0.400
-6.080 -6.185 0.119
-6.910 -7.296 0.400
-6.209 -6.180 -0.015
-7.769 -8.064 0.309
-5.643 -5.996 0.366
-7.338 -8.411 1.088
-7.475 -7.715 0.255
-7.730 -7.878 0.161
-5.643 -5.996 0.366
-6.039 -6.915 0.888
-7.584 -7.967 0.398
-7.338 -8.411 1.088
-6.410 -6.818 0.422
-7.664 -7.860 0.212
-7.584 -7.967 0.398
-8.600 -8.308 -0.279
-8.600 -8.308 -0.279
-6.640 -7.371 0.743
-6.774 -7.777 1.009
-7.338 -8.411 1.088
-7.584 -7.967 0.398
-7.584 -7.967 0.398
-7.338 -8.411 1.088
-7.730 -7.878 0.161
-7.724 -8.132 0.423
-6.640 -7.371 0.743
-8.600 -8.308 -0.279
-6.647 -7.793 1.159
-7.338 -8.411 1.088
-6.910 -7.296 0.400
-6.910 -7.296 0.400
-7.730 -7.878 0.161
-8.600 -8.308 -0.279
-8.600 -8.308 -0.279
-8.600 -8.308 -0.279
-6.082 -6.185 0.117
-6.774 -7.777 1.009
-8.600 -8.308 -0.279
-8.600 -8.308 -0.279
-6.039 -6.915 0.888
-7.106 -6.929 -0.162
-7.106 -6.929 -0.162
-7.106 -6.929 -0.162
-8.600 -8.308 -0.279
-6.209 -6.180 -0.015
-7.338 -8.411 1.088
-8.600 -8.308 -0.279
-7.338 -8.411 1.088
-7.769 -8.064 0.309
-6.910 -7.296 0.400
-8.600 -8.308 -0.279
-8.600 -8.308 -0.279
-8.600 -8.308 -0.279
-7.664 -7.860 0.212
-6.209 -6.180 -0.015
-6.910 -7.296 0.400
-6.082 -6.185 0.117
-7.730 -7.878 0.161
-5.643 -5.996 0.366
-5.643 -5.996 0.366
-6.209 -6.180 -0.015
-6.414 -6.818 0.418
-7.664 -7.860 0.212
-6.082 -6.185 0.117
-6.039 -6.915 0.888
-6.647 -7.793 1.159
-6.647 -7.793 1.159
-6.647 -7.793 1.159
-6.647 -7.793 1.159
-7.730 -7.878 0.161
-7.730 -7.878 0.161
-7.308 -8.192 0.898
-6.910 -7.296 0.400
-6.774 -7.777 1.009
-7.338 -8.411 1.088
-8.600 -8.308 -0.279
-5.664 -5.969 0.318
-6.910 -7.296 0.400
-5.641 -5.997 0.369
-7.584 -7.967 0.398
-6.774 -7.777 1.008
-6.910 -7.296 0.400
-7.730 -7.878 0.161
-8.600 -8.308 -0.279
-7.661 -7.848 0.202
-7.135 -6.914 -0.207
-7.105 -6.929 -0.162
-6.774 -7.777 1.008
-6.209 -6.180 -0.015
-4.715 -5.631 0.931
-4.323 -5.727 1.419
-7.338 -8.411 1.088
-7.308 -8.192 0.898
-6.143 -5.829 -0.300
-6.774 -7.777 1.009
-7.601 -8.611 1.024
-7.601 -8.611 1.024
-6.039 -6.915 0.888
-8.600 -8.308 -0.279
-7.338 -8.411 1.088
-6.039 -6.915 0.888
-7.584 -7.967 0.398
-6.910 -7.296 0.400
-7.338 -8.411 1.088
-8.600 -8.308 -0.279
-6.910 -7.296 0.400
-6.039 -6.915 0.888
-7.393 -8.244 0.864
-7.601 -8.611 1.024
-6.384 -7.138 0.768
-7.664 -7.860 0.212
-6.039 -6.915 0.888
-8.600 -8.308 -0.279
-6.640 -7.371 0.743
-6.277 -6.860 0.597
-7.717 -7.881 0.177
-6.910 -7.296 0.400
-7.584 -7.967 0.398
-6.774 -7.777 1.009
-7.584 -7.967 0.398
-7.730 -7.878 0.161
-7.338 -8.411 1.088
-7.664 -7.860 0.212
-6.282 -6.858 0.590
-8.600 -8.308 -0.279
-7.105 -6.929 -0.162
-5.496 -6.354 0.872
-6.912 -7.296 0.399
-5.459 -5.780 0.333
-7.744 -8.062 0.333
-6.911 -7.296 0.399
-8.599 -8.308 -0.278
-5.648 -6.407 0.773
-6.912 -7.296 0.399
-6.774 -7.777 1.008
-5.513 -6.371 0.873
-7.767 -8.064 0.311
-7.767 -8.064 0.311
-6.912 -7.296 0.399
-6.912 -7.296 0.399
-7.338 -8.411 1.088
-6.041 -6.915 0.886
-6.773 -7.777 1.009
-4.690 -5.633 0.957
-5.543 -5.395 -0.133
-7.603 -8.611 1.022
-8.599 -8.308 -0.278
-7.584 -7.967 0.398
-8.599 -8.308 -0.278
-6.047 -6.189 0.156
-6.047 -6.189 0.156
-6.912 -7.296 0.399
-8.641 -8.309 -0.319
-7.716 -7.881 0.177
-7.716 -7.881 0.177
-7.338 -8.411 1.088
-5.671 -5.969 0.311
-6.213 -6.179 -0.021
-7.583 -7.967 0.398
-6.911 -7.296 0.400
-6.638 -7.371 0.745
-7.105 -6.929 -0.161
-6.638 -7.371 0.745
-6.773 -7.777 1.009
-8.598 -8.308 -0.277
-7.256 -7.350 0.107
-5.513 -6.371 0.873
-6.774 -7.777 1.008
-7.585 -7.967 0.397
-6.912 -7.296 0.399
-7.105 -6.929 -0.161
-7.485 -7.948 0.476
-8.599 -8.308 -0.278
-6.413 -6.819 0.419
-5.459 -5.780 0.333
-6.142 -5.829 -0.299
-7.338 -8.411 1.088
-6.774 -7.777 1.008
-6.774 -7.777 1.008
-7.338 -8.411 1.088
-7.602 -8.611 1.023
-8.599 -8.308 -0.278
-5.459 -5.780 0.333
-7.338 -8.411 1.088
-6.041 -6.915 0.887
-7.100 -6.931 -0.155
-7.663 -7.860 0.213
-7.338 -8.411 1.088
-6.775 -7.777 1.007
-5.472 -5.779 0.319
-6.411 -6.818 0.421
-7.584 -7.967 0.398
-5.472 -5.779 0.319
-7.486 -7.948 0.475
-8.599 -8.308 -0.278
-6.639 -7.371 0.744
-7.716 -7.881 0.178
-6.912 -7.296 0.399
-8.599 -8.308 -0.278
-5.525 -6.306 0.796
-7.338 -8.411 1.088
-5.059 -5.385 0.341
-6.029 -6.194 0.179
-6.283 -6.857 0.589
-7.584 -7.967 0.398
-7.584 -7.967 0.398
-8.599 -8.308 -0.278
-6.029 -6.194 0.179
-6.283 -6.857 0.589
-6.283 -6.857 0.589
-7.584 -7.967 0.398
-4.710 -5.634 0.939
-6.042 -6.915 0.886
-6.145 -5.829 -0.302
-8.599 -8.308 -0.278
-6.638 -7.371 0.745
-5.525 -6.306 0.796
-6.029 -6.194 0.179
-8.599 -8.308 -0.278
-6.029 -6.194 0.179
-6.029 -6.194 0.179
-8.599 -8.308 -0.278
-8.599 -8.308 -0.278
-8.599 -8.308 -0.278
-7.743 -8.062 0.334
-6.145 -5.829 -0.302
-7.584 -7.967 0.398
-6.775 -7.777 1.007
-6.042 -6.915 0.886
-6.775 -7.777 1.007
-8.599 -8.308 -0.278
-6.638 -7.371 0.745
-6.029 -6.194 0.179
-5.505 -6.354 0.863
-6.639 -7.371 0.745
-7.729 -7.878 0.163
-6.034 -6.191 0.171
-8.599 -8.308 -0.278
-6.041 -6.915 0.886
-5.563 -6.013 0.463
-7.604 -8.611 1.022
-5.519 -6.371 0.867
-6.035 -6.193 0.172
-6.035 -6.193 0.172
-5.600 -6.006 0.419
-6.213 -6.179 -0.021
-7.664 -7.861 0.212
-6.648 -7.794 1.159
-8.600 -8.308 -0.279
-6.087 -6.184 0.111
-6.087 -6.184 0.111
-7.730 -7.878 0.161
-6.826 -6.829 0.016
-7.664 -7.860 0.211
-6.775 -7.777 1.008
-6.775 -7.777 1.008
-6.087 -6.185 0.112
-6.826 -6.829 0.016
-6.565 -7.848 1.292
-6.415 -6.818 0.417
-5.651 -5.994 0.356
-6.775 -7.777 1.008
-8.600 -8.308 -0.279
-6.641 -7.370 0.742
-7.308 -8.192 0.898
-5.616 -5.999 0.396
-6.775 -7.777 1.008
-7.338 -8.411 1.088
-7.259 -7.349 0.104
-7.716 -7.881 0.177
-5.671 -5.969 0.311
-7.730 -7.878 0.161
-8.600 -8.308 -0.279
-8.600 -8.308 -0.279
-6.911 -7.296 0.400
-8.600 -8.308 -0.279
-8.600 -8.308 -0.279
-6.085 -6.185 0.114
-7.583 -7.967 0.398
-6.648 -7.794 1.159
-6.085 -6.185 0.114
-6.085 -6.184 0.113
-6.085 -6.184 0.113
-7.769 -8.063 0.309
-5.543 -5.395 -0.133
-6.639 -7.371 0.744
-6.041 -6.915 0.886
-6.047 -6.191 0.158
-7.509 -7.691 0.192
-8.599 -8.308 -0.278
-7.257 -7.350 0.106
-6.047 -6.191 0.158
-8.599 -8.308 -0.278
-4.701 -5.631 0.945
-6.775 -7.777 1.007
-6.415 -6.819 0.417
-5.576 -6.009 0.446
-6.775 -7.777 1.007
-8.599 -8.308 -0.278
-6.775 -7.777 1.007
-7.338 -8.411 1.088
-8.641 -8.309 -0.319
-6.089 -6.183 0.108
-6.911 -7.296 0.400
-7.664 -7.860 0.211
-5.334 -5.852 0.532
-5.654 -5.994 0.353
-8.600 -8.308 -0.279
-6.775 -7.777 1.008
-6.775 -7.777 1.008
-5.654 -5.994 0.353
-6.040 -6.915 0.888
-6.089 -6.183 0.108
-6.089 -6.183 0.108
-6.089 -6.183 0.108
-6.089 -6.183 0.108
-5.654 -5.994 0.353
-5.654 -5.994 0.353
-7.393 -8.244 0.864
-6.089 -6.183 0.108
-6.146 -5.829 -0.304
-6.040 -6.915 0.888
-5.654 -5.994 0.353
-8.600 -8.308 -0.279
-8.600 -8.308 -0.279
-6.146 -5.829 -0.304
-8.600 -8.308 -0.279
-8.600 -8.308 -0.279
-7.106 -6.929 -0.162
-7.106 -6.929 -0.162
-6.775 -7.777 1.008
-6.090 -6.185 0.109
-8.600 -8.308 -0.279
-7.769 -8.063 0.309
-6.089 -6.183 0.108
-5.618 -5.998 0.393
-8.600 -8.308 -0.279
-6.641 -7.370 0.742
-5.618 -5.998 0.393
-7.106 -6.929 -0.162
-6.090 -6.185 0.109
-7.583 -7.967 0.398
-7.602 -8.611 1.023
-6.040 -6.915 0.888
-6.089 -6.183 0.108
-8.600 -8.308 -0.279
-6.089 -6.183 0.108
-6.089 -6.183 0.108
-6.090 -6.185 0.109
-6.089 -6.183 0.108
-7.583 -7.967 0.398
-6.775 -7.777 1.008
-6.146 -5.829 -0.304
-6.040 -6.915 0.888
-6.775 -7.777 1.008
-8.600 -8.308 -0.279
-6.089 -6.183 0.108
-8.600 -8.308 -0.279
-6.090 -6.185 0.109
-6.089 -6.183 0.108
-8.600 -8.308 -0.279
-6.040 -6.915 0.888
-8.600 -8.308 -0.279
-7.581 -7.967 0.401
-7.574 -7.701 0.142
-7.137 -6.931 -0.191
-6.775 -7.777 1.008
-8.600 -8.308 -0.279
-6.090 -6.185 0.109
-6.090 -6.185 0.109
-8.600 -8.308 -0.279
-6.090 -6.185 0.109
-5.728 -5.497 -0.217
-8.600 -8.308 -0.279
-6.775 -7.777 1.008
-6.775 -7.777 1.008
-8.600 -8.308 -0.279
-6.090 -6.185 0.109
-6.911 -7.296 0.400
-8.600 -8.308 -0.279
-5.334 -5.852 0.532
-7.730 -7.878 0.161
-7.583 -7.967 0.398
-8.600 -8.308 -0.279
-7.583 -7.967 0.398
-6.911 -7.296 0.400
-6.911 -7.296 0.400
-7.338 -8.411 1.088
-6.090 -6.185 0.109
-7.602 -8.611 1.023
-5.505 -6.354 0.863
-7.395 -7.645 0.244
-6.034 -6.191 0.171
-7.105 -6.929 -0.161
-8.599 -8.308 -0.278
-6.033 -6.193 0.173
-5.313 -5.455 0.157
-8.599 -8.308 -0.278
-8.599 -8.308 -0.278
-5.575 -6.010 0.448
-6.046 -6.189 0.157
-4.713 -5.633 0.935
-6.639 -7.371 0.744
-4.700 -5.631 0.946
-8.599 -8.308 -0.278
-6.775 -7.777 1.007
-6.145 -5.829 -0.302
-6.911 -7.296 0.400
-6.138 -5.827 -0.298
-6.047 -6.189 0.156
-6.047 -6.189 0.156
-5.613 -6.002 0.402
-5.613 -6.002 0.402
-6.047 -6.189 0.156
-6.047 -6.189 0.156
-6.772 -7.777 1.010
-7.100 -6.930 -0.155
-6.638 -7.371 0.745
-6.638 -7.371 0.745
-6.047 -6.189 0.156
-8.599 -8.308 -0.278
-6.047 -6.189 0.156
-6.774 -7.777 1.008
-6.284 -6.867 0.597
-7.337 -8.411 1.089
-6.047 -6.189 0.156
-5.726 -5.497 -0.215
-6.047 -6.188 0.154
-6.047 -6.188 0.154
-5.577 -6.008 0.444
-7.662 -7.860 0.213
-7.662 -7.860 0.213
-6.040 -6.915 0.887
-6.047 -6.189 0.156
-6.047 -6.189 0.156
-8.599 -8.308 -0.278
-7.584 -7.967 0.398
-6.774 -7.777 1.008
-7.584 -7.967 0.398
-5.402 -5.843 0.454
-5.331 -5.852 0.534
-6.411 -6.818 0.421
-6.052 -6.189 0.150
-6.052 -6.189 0.150
-4.714 -5.633 0.933
-4.694 -5.632 0.953
-6.145 -5.829 -0.303
-5.581 -6.008 0.440
-6.052 -6.190 0.152
-8.599 -8.308 -0.278
-6.041 -6.915 0.886
-6.041 -6.915 0.886
-5.581 -6.008 0.440
-5.313 -5.455 0.156
-6.145 -5.829 -0.302
-5.575 -6.010 0.448
-8.599 -8.308 -0.278
-6.046 -6.189 0.157
-7.716 -7.881 0.178
-5.575 -6.010 0.448
-8.599 -8.308 -0.278
-6.046 -6.189 0.157
-5.726 -5.497 -0.215
-8.599 -8.308 -0.278
-6.913 -7.296 0.399
-8.599 -8.308 -0.278
-6.826 -6.829 0.016
-6.045 -6.191 0.159
-5.505 -6.354 0.863
-6.145 -5.829 -0.302
-8.599 -8.308 -0.278
-8.599 -8.308 -0.278
-6.034 -6.191 0.171
-8.599 -8.308 -0.278
-5.563 -6.013 0.463
-6.041 -6.915 0.886
-8.599 -8.308 -0.278
-7.225 -8.098 0.887
-5.725 -5.497 -0.214
-8.599 -8.308 -0.278
-6.639 -7.371 0.745
-8.599 -8.308 -0.278
-6.034 -6.191 0.171
-6.145 -5.829 -0.302
-4.698 -5.632 0.949
-8.599 -8.308 -0.278
-6.138 -5.827 -0.298
-7.338 -8.411 1.088
-6.034 -6.191 0.171
-8.599 -8.308 -0.278
-7.662 -7.860 0.213
-6.145 -5.829 -0.302
-5.599 -6.007 0.421
-6.775 -7.777 1.007
-6.913 -7.296 0.398
-8.599 -8.308 -0.278
-7.146 -6.947 -0.185
-6.139 -5.827 -0.298
-4.690 -5.633 0.958
-6.145 -5.829 -0.302
-7.582 -7.968 0.401
-8.599 -8.308 -0.278
-7.338 -8.411 1.088
-6.033 -6.193 0.173
-7.655 -7.842 0.202
-7.338 -8.411 1.088
-4.743 -6.248 1.520
-7.100 -6.930 -0.156
-6.033 -6.193 0.173
-6.384 -7.138 0.768
-8.599 -8.308 -0.278
-6.041 -6.915 0.886
-5.725 -5.497 -0.214
-6.775 -7.777 1.007
-8.599 -8.308 -0.278
-4.711 -5.634 0.938
-7.130 -6.925 -0.190
-4.711 -5.634 0.938
-8.599 -8.308 -0.278
-6.145 -5.829 -0.302
-8.599 -8.308 -0.278
-6.639 -7.371 0.745
-5.725 -5.497 -0.214
-5.519 -6.371 0.867
-7.765 -8.064 0.313
-8.599 -8.308 -0.278
-7.256 -7.350 0.107
-7.256 -7.350 0.107
-6.035 -6.193 0.172
-5.600 -6.006 0.419
-7.716 -7.881 0.179
-6.035 -6.191 0.170
-8.599 -8.308 -0.278
-7.369 -8.048 0.694
-6.035 -6.191 0.170
-5.564 -6.012 0.461
-8.599 -8.308 -0.278
-5.564 -6.012 0.461
-5.402 -5.843 0.454
-8.599 -8.308 -0.278
-5.331 -5.852 0.534
-6.052 -6.190 0.152
-6.052 -6.190 0.152
-6.052 -6.190 0.152
-4.744 -6.247 1.518
-5.617 -6.002 0.399
-6.775 -7.777 1.007
-6.775 -7.777 1.007
-6.052 -6.189 0.150
-7.338 -8.411 1.088
-5.726 -5.497 -0.215
-6.639 -7.371 0.744
-6.775 -7.777 1.007
-6.052 -6.190 0.152
-5.617 -6.002 0.399
-4.714 -5.633 0.933
-6.139 -5.827 -0.299
-5.726 -5.497 -0.215
-6.775 -7.777 1.007
-6.139 -5.827 -0.299
-6.145 -5.829 -0.302
-5.581 -6.008 0.440
-5.472 -5.779 0.319
-7.338 -8.411 1.088
-6.912 -7.296 0.399
-6.139 -5.827 -0.298
-6.053 -6.188 0.149
-8.599 -8.308 -0.278
-6.775 -7.776 1.007
-6.775 -7.777 1.007
-6.070 -6.191 0.135
-6.775 -7.777 1.007
-4.694 -5.633 0.954
-6.139 -5.827 -0.299
-5.582 -6.008 0.439
-5.582 -6.008 0.439
-7.257 -7.350 0.106
-8.599 -8.308 -0.278
-6.775 -7.777 1.007
-8.599 -8.308 -0.278
-8.599 -8.308 -0.278
-7.663 -7.860 0.213
-6.053 -6.190 0.151
-6.053 -6.188 0.149
-6.773 -7.777 1.009
-8.599 -8.308 -0.278
-6.639 -7.371 0.744
-6.145 -5.829 -0.302
-5.331 -5.852 0.534
-8.599 -8.308 -0.278
-6.139 -5.827 -0.299
-6.041 -6.915 0.886
-6.411 -6.818 0.421
-5.726 -5.497 -0.215
-6.139 -5.827 -0.299
-7.584 -7.967 0.398
-4.325 -5.730 1.420
-6.053 -6.190 0.151
-6.053 -6.190 0.151
-6.775 -7.777 1.007
-6.775 -7.777 1.007
-5.726 -5.497 -0.215
-8.599 -8.308 -0.278
-8.599 -8.308 -0.278
-6.053 -6.188 0.149
-8.599 -8.308 -0.278
-6.053 -6.190 0.151
-6.775 -7.777 1.007
-7.139 -6.912 -0.212
-8.599 -8.308 -0.278
-6.053 -6.188 0.149
-6.053 -6.188 0.149
-5.331 -5.852 0.534
-6.639 -7.371 0.744
-7.308 -8.192 0.899
-6.145 -5.829 -0.302
-6.053 -6.188 0.149
-8.599 -8.308 -0.278
-6.775 -7.777 1.007
-7.338 -8.411 1.088
-5.331 -5.852 0.534
-7.584 -7.967 0.398
-4.325 -5.730 1.420
-6.053 -6.190 0.151
-8.599 -8.308 -0.278
-6.053 -6.188 0.149
-7.765 -8.063 0.313
-5.726 -5.497 -0.215
-6.775 -7.777 1.007
-6.053 -6.188 0.149
-6.053 -6.188 0.149
-7.729 -7.878 0.162
-6.053 -6.188 0.149
-8.599 -8.308 -0.278
-5.726 -5.497 -0.215
-6.053 -6.190 0.151
-6.221 -6.273 0.065
-7.098 -6.939 -0.144
-5.726 -5.497 -0.215
-7.257 -7.350 0.106
-4.696 -5.059 0.377
-6.053 -6.188 0.149
-6.826 -6.829 0.016
-5.331 -5.852 0.534
-8.599 -8.308 -0.278
-8.599 -8.308 -0.278
-6.145 -5.829 -0.302
-8.599 -8.308 -0.278
-7.584 -7.967 0.398
-6.070 -6.191 0.135
-6.053 -6.188 0.149
-4.694 -5.632 0.953
-7.105 -6.929 -0.161
-7.257 -7.350 0.106
-6.140 -5.827 -0.299
-6.047 -6.188 0.154
-8.641 -8.309 -0.319
-8.600 -8.308 -0.279
-6.641 -7.370 0.742
-8.600 -8.308 -0.279
-7.259 -7.349 0.104
-7.259 -7.349 0.103
-5.334 -5.852 0.532
-7.259 -7.349 0.104
-5.334 -5.852 0.532
-8.600 -8.308 -0.279
-6.775 -7.777 1.007
-6.140 -5.826 -0.300
-8.600 -8.308 -0.279
-6.089 -6.183 0.108
-6.775 -7.777 1.008
-8.600 -8.308 -0.279
-6.090 -6.185 0.109
-6.146 -5.829 -0.304
-6.090 -6.185 0.109
-8.600 -8.308 -0.279
-6.106 -6.185 0.092
-7.106 -6.929 -0.162
-8.600 -8.308 -0.279
-8.600 -8.308 -0.279
-7.259 -7.349 0.103
-7.259 -7.349 0.103
-8.600 -8.308 -0.279
-6.089 -6.183 0.108
-6.729 -7.345 0.630
-6.089 -6.183 0.108
-6.089 -6.183 0.108
-6.641 -7.370 0.742
-7.098 -6.940 -0.144
-6.775 -7.777 1.008
-6.140 -5.826 -0.299
-5.334 -5.852 0.532
-8.600 -8.308 -0.279
-5.334 -5.852 0.532
-6.641 -7.370 0.742
-6.089 -6.183 0.108
-7.143 -6.939 -0.189
-5.334 -5.852 0.532
-6.641 -7.370 0.742
-8.600 -8.308 -0.279
-6.090 -6.185 0.109
-8.600 -8.308 -0.279
-6.089 -6.183 0.108
-6.089 -6.183 0.108
-6.106 -6.185 0.092
-6.641 -7.370 0.742
-6.107 -6.186 0.092
-6.089 -6.183 0.108
-6.089 -6.183 0.108
-6.106 -6.185 0.092
-6.089 -6.183 0.108
-8.600 -8.308 -0.279
-7.259 -7.349 0.103
-7.486 -7.948 0.475
-8.600 -8.308 -0.279
-6.910 -7.296 0.402
-7.259 -7.349 0.104
-7.259 -7.349 0.104
-6.773 -7.777 1.009
-6.089 -6.183 0.108
-6.089 -6.183 0.108
-6.106 -6.185 0.092
-6.089 -6.183 0.108
-6.089 -6.183 0.108
-6.624 -7.366 0.755
-6.089 -6.183 0.108
-6.089 -6.183 0.108
-8.600 -8.308 -0.279
-6.089 -6.183 0.108
-6.775 -7.777 1.008
-8.600 -8.308 -0.279
-8.600 -8.308 -0.279
-6.775 -7.777 1.008
-6.089 -6.183 0.108
-6.775 -7.777 1.008
-7.106 -6.932 -0.159
-6.089 -6.183 0.108
-8.600 -8.308 -0.279
-7.486 -7.948 0.475
-6.089 -6.183 0.108
-6.624 -7.366 0.755
-6.641 -7.370 0.742
-6.775 -7.777 1.008
-5.333 -5.852 0.532
-6.140 -5.826 -0.300
-4.697 -5.058 0.375
-5.333 -5.852 0.532
-6.140 -5.826 -0.300
-6.089 -6.183 0.108
-7.106 -6.929 -0.162
-6.089 -6.183 0.108
-6.089 -6.183 0.108
-8.600 -8.308 -0.279
-7.259 -7.349 0.103
-8.600 -8.308 -0.279
-6.826 -6.829 0.016
-6.089 -6.183 0.108
-6.089 -6.183 0.108
-6.146 -5.829 -0.304
-5.334 -5.852 0.532
-6.089 -6.183 0.108
-6.089 -6.183 0.108
-5.333 -5.852 0.532
-7.106 -6.925 -0.166
-6.089 -6.183 0.108
-6.106 -6.185 0.092
-6.146 -5.829 -0.304
-6.775 -7.774 1.004
-6.775 -7.777 1.008
-6.106 -6.185 0.092
-7.259 -7.349 0.103
-7.138 -6.927 -0.196
-7.338 -8.411 1.088
-6.089 -6.183 0.108
-6.089 -6.183 0.108
-6.624 -7.366 0.755
-5.334 -5.852 0.532
-7.101 -6.931 -0.155
-6.775 -7.779 1.009
-8.600 -8.308 -0.279
-6.089 -6.183 0.108
-6.140 -5.826 -0.300
-6.089 -6.183 0.108
-6.775 -7.777 1.008
-6.106 -6.185 0.092
-7.101 -6.931 -0.155
-7.105 -6.921 -0.169
-4.702 -5.630 0.943
-6.090 -6.185 0.109
-6.590 -7.762 1.179
-5.653 -5.994 0.353
-8.600 -8.308 -0.279
-6.089 -6.183 0.108
-6.775 -7.777 1.008
-6.626 -7.367 0.754
-8.600 -8.308 -0.279
-6.089 -6.183 0.108
-5.618 -5.998 0.393
-8.600 -8.308 -0.279
-6.832 -6.830 0.011
-5.728 -5.497 -0.217
-5.654 -5.994 0.353
-6.624 -7.366 0.755
-6.624 -7.366 0.755
-6.089 -6.183 0.108
-8.600 -8.308 -0.279
-5.728 -5.497 -0.217
-5.728 -5.497 -0.217
-5.334 -5.852 0.532
-6.089 -6.183 0.108
-7.730 -7.878 0.161
-6.641 -7.370 0.742
-7.259 -7.349 0.103
-6.089 -6.183 0.108
-8.600 -8.308 -0.279
-6.146 -5.830 -0.303
-7.259 -7.349 0.103
-6.106 -6.185 0.092
-7.259 -7.349 0.103
-6.146 -5.829 -0.304
-8.600 -8.308 -0.279
-6.106 -6.185 0.092
-5.334 -5.852 0.532
-7.149 -6.945 -0.188
-6.146 -5.829 -0.304
-7.106 -6.929 -0.162
-8.600 -8.308 -0.279
-5.654 -5.994 0.353
-6.146 -5.828 -0.304
-7.259 -7.349 0.103
-6.775 -7.777 1.008
-7.259 -7.349 0.103
-6.598 -7.765 1.174
-6.089 -6.183 0.108
-6.575 -7.709 1.139
-7.259 -7.349 0.103
-7.259 -7.349 0.103
-8.600 -8.308 -0.279
-5.334 -5.852 0.532
-6.106 -6.185 0.093
-7.259 -7.349 0.104
-5.226 -5.842 0.630
-6.106 -6.185 0.093
-6.089 -6.183 0.108
-6.090 -6.185 0.109
-6.146 -5.829 -0.304
-7.553 -7.853 0.315
-6.106 -6.185 0.092
-4.722 -5.631 0.923
-7.101 -6.901 -0.185
-6.146 -5.829 -0.304
-6.089 -6.183 0.108
-7.259 -7.349 0.104
-6.133 -6.100 -0.029
-6.089 -6.183 0.108
-6.146 -5.829 -0.304
-6.624 -7.366 0.755
-6.552 -7.655 1.110
-6.146 -5.829 -0.304
-6.106 -6.185 0.092
-6.106 -6.185 0.092
-7.259 -7.349 0.104
-6.775 -7.777 1.008
-6.089 -6.183 0.108
-6.775 -7.789 1.019
-6.106 -6.185 0.092
-7.102 -6.901 -0.186
-6.597 -7.765 1.174
-6.106 -6.185 0.092
-6.106 -6.185 0.092
-6.775 -7.777 1.008
-6.597 -7.765 1.174
-7.259 -7.349 0.103
-6.106 -6.185 0.092
-6.107 -6.186 0.093
-7.259 -7.349 0.103
-6.107 -6.186 0.093
-6.597 -7.770 1.178
-6.626 -7.367 0.754
-7.098 -6.925 -0.159
-6.146 -5.829 -0.304
-6.106 -6.185 0.092
-6.626 -7.367 0.754
-6.106 -6.185 0.092
-6.146 -5.829 -0.304
-6.106 -6.185 0.092
-6.360 -6.447 0.096
-8.340 -8.327 -0.000
-8.600 -8.308 -0.279
-7.259 -7.349 0.103
-6.587 -7.762 1.181
-7.259 -7.349 0.103
-6.106 -6.185 0.092
-7.819 -8.622 0.817
-7.727 -7.879 0.165
-7.661 -7.860 0.214
-7.727 -7.879 0.165
-7.727 -7.879 0.165
-7.605 -8.613 1.022
-7.819 -8.622 0.817
-7.605 -8.613 1.022
-7.203 -8.069 0.881
-7.203 -8.069 0.881
-7.399 -8.245 0.859
-7.219 -8.097 0.893
-7.203 -8.069 0.881
-7.821 -8.622 0.815
-7.218 -8.097 0.894
-7.203 -8.069 0.881
-7.399 -8.245 0.859
-7.605 -8.612 1.021
-7.203 -8.069 0.881
-7.203 -8.069 0.881
-7.399 -8.245 0.859
-7.219 -8.097 0.893
-7.219 -8.097 0.893
-7.203 -8.069 0.881
-7.399 -8.245 0.859
-7.605 -8.612 1.021
-7.712 -7.881 0.182
-7.605 -8.612 1.021
-7.755 -8.060 0.319
-7.203 -8.069 0.881
-7.279 -8.290 1.025
-7.399 -8.245 0.859
-7.203 -8.069 0.881
-7.755 -8.060 0.319
-7.712 -7.881 0.182
-7.219 -8.097 0.893
-7.101 -6.930 -0.156
-7.605 -8.612 1.021
-7.400 -8.245 0.859
-7.400 -8.245 0.859
-7.400 -8.245 0.859
-6.275 -6.860 0.600
-7.476 -7.951 0.488
-7.400 -8.245 0.859
-7.219 -8.097 0.893
-7.400 -8.245 0.859
-6.411 -6.819 0.421
-7.712 -7.881 0.182
-6.411 -6.819 0.421
-7.746 -7.894 0.161
-7.101 -6.930 -0.156
-7.476 -7.952 0.488
-7.219 -8.097 0.893
-7.101 -6.930 -0.156
-6.382 -7.138 0.769
-6.382 -7.138 0.769
-7.203 -8.069 0.881
-6.275 -6.860 0.600
-7.399 -8.245 0.859
-7.101 -6.930 -0.157
-7.476 -7.951 0.488
-7.399 -8.245 0.859
-6.275 -6.860 0.600
-7.605 -8.612 1.021
-7.101 -6.930 -0.157
-7.101 -6.930 -0.157
-6.516 -7.408 0.908
-7.219 -8.097 0.893
-6.275 -6.860 0.600
-7.399 -8.245 0.859
-7.101 -6.930 -0.157
-7.101 -6.930 -0.157
-7.101 -6.930 -0.157
-7.712 -7.881 0.182
-7.219 -8.097 0.893
-7.399 -8.245 0.859
-6.411 -6.819 0.421
-7.101 -6.930 -0.157
-7.101 -6.930 -0.157
-7.712 -7.881 0.182
-6.411 -6.819 0.421
-7.101 -6.930 -0.157
-7.279 -8.290 1.025
-7.712 -7.881 0.182
-7.399 -8.245 0.859
-7.101 -6.930 -0.157
-7.101 -6.930 -0.157
-7.101 -6.930 -0.157
-7.101 -6.930 -0.157
-6.411 -6.819 0.421
-7.605 -8.612 1.021
-6.275 -6.860 0.600
-7.101 -6.930 -0.157
-7.399 -8.245 0.859
-6.411 -6.819 0.421
-7.101 -6.930 -0.157
-7.101 -6.930 -0.157
-7.712 -7.881 0.182
-7.605 -8.612 1.021
-7.219 -8.097 0.893
-7.399 -8.245 0.859
-7.101 -6.930 -0.157
-7.101 -6.930 -0.157
-7.101 -6.930 -0.157
-7.101 -6.930 -0.157
-7.749 -8.057 0.322
-7.605 -8.612 1.021
-6.383 -7.138 0.769
-6.411 -6.819 0.421
-7.101 -6.930 -0.157
-6.411 -6.819 0.421
-7.712 -7.881 0.182
-7.476 -7.951 0.488
-7.399 -8.245 0.859
-7.219 -8.097 0.893
-7.219 -8.097 0.893
-7.279 -8.290 1.025
-7.101 -6.930 -0.157
-7.605 -8.612 1.021
-7.749 -8.057 0.322
-6.411 -6.819 0.421
-6.275 -6.860 0.600
-7.219 -8.097 0.893
-7.101 -6.930 -0.157
-7.101 -6.930 -0.157
-7.219 -8.097 0.893
-7.530 -7.847 0.332
-7.712 -7.881 0.182
-7.530 -7.847 0.332
-6.411 -6.819 0.421
-7.605 -8.612 1.021
-7.476 -7.951 0.487
-7.399 -8.245 0.859
-6.275 -6.860 0.600
-6.411 -6.819 0.421
-6.142 -5.829 -0.300
-7.279 -8.290 1.025
-7.399 -8.245 0.859
-7.101 -6.930 -0.157
-7.605 -8.612 1.021
-7.712 -7.881 0.182
-6.411 -6.819 0.421
-7.476 -7.951 0.488
-7.605 -8.612 1.021
-6.411 -6.819 0.421
-7.096 -6.931 -0.150
-6.413 -6.819 0.420
-6.145 -5.829 -0.302
-7.280 -8.290 1.024
-7.712 -7.881 0.182
-7.219 -8.097 0.892
-7.477 -7.951 0.487
-7.280 -8.290 1.024
-7.280 -8.290 1.024
-7.712 -7.881 0.182
-7.475 -7.951 0.489
-5.726 -5.497 -0.215
-7.749 -8.056 0.322
-7.219 -8.097 0.892
-6.413 -6.819 0.420
-7.101 -6.930 -0.157
-7.101 -6.930 -0.157
-7.101 -6.930 -0.157
-6.383 -7.138 0.769
-7.101 -6.930 -0.156
-7.712 -7.881 0.182
-7.101 -6.930 -0.157
-6.383 -7.138 0.769
-7.096 -6.931 -0.150
-7.391 -8.245 0.867
-7.101 -6.930 -0.157
-6.383 -7.138 0.769
-7.096 -6.931 -0.150
-7.477 -7.951 0.487
-7.101 -6.930 -0.157
-7.400 -8.245 0.858
-7.101 -6.930 -0.157
-7.101 -6.930 -0.157
-7.219 -8.097 0.892
-7.101 -6.930 -0.157
-7.101 -6.930 -0.157
-7.101 -6.927 -0.159
-7.477 -7.951 0.487
-7.530 -7.847 0.332
-7.712 -7.881 0.182
-6.404 -6.819 0.428
-7.477 -7.951 0.487
-7.101 -6.930 -0.157
-6.413 -6.819 0.420
-7.530 -7.845 0.330
-7.096 -6.931 -0.150
-7.712 -7.881 0.182
-7.477 -7.951 0.487
-7.219 -8.097 0.892
-7.477 -7.951 0.487
-7.477 -7.951 0.487
-7.400 -8.245 0.858
-7.101 -6.930 -0.157
-6.275 -6.860 0.599
-6.413 -6.819 0.420
-7.477 -7.951 0.487
-7.712 -7.881 0.182
-6.404 -6.819 0.428
-7.101 -6.930 -0.157
-7.101 -6.930 -0.157
-6.413 -6.819 0.420
-7.219 -8.097 0.892
-7.101 -6.930 -0.157
-7.101 -6.930 -0.157
-7.101 -6.930 -0.157
-7.712 -7.881 0.182
-6.145 -5.829 -0.302
-7.280 -8.290 1.024
-7.712 -7.881 0.182
-7.712 -7.881 0.182
-6.413 -6.819 0.420
-7.400 -8.245 0.858
-7.101 -6.930 -0.157
-7.606 -8.612 1.020
-6.393 -7.135 0.756
-6.139 -5.826 -0.298
-7.096 -6.932 -0.149
-7.101 -6.930 -0.157
-7.101 -6.930 -0.157
-7.101 -6.930 -0.157
-7.096 -6.931 -0.150
-5.726 -5.497 -0.215
-6.139 -5.826 -0.298
-7.712 -7.881 0.182
-7.712 -7.881 0.182
-7.096 -6.929 -0.152
-5.726 -5.497 -0.215
-7.712 -7.881 0.182
-6.139 -5.826 -0.298
-7.101 -6.930 -0.157
-7.096 -6.931 -0.150
-7.477 -7.951 0.487
-7.101 -6.930 -0.157
-7.096 -6.931 -0.150
-6.404 -6.819 0.428
-7.096 -6.931 -0.150
-5.726 -5.497 -0.215
-7.096 -6.931 -0.150
-5.674 -5.486 -0.175
-7.477 -7.951 0.487
-7.477 -7.951 0.487
-7.096 -6.928 -0.153
-6.275 -6.860 0.599
-7.391 -8.245 0.867
-7.400 -8.245 0.858
-7.712 -7.881 0.182
-5.674 -5.486 -0.175