-10.899 -10.740 -0.232
-10.899 -10.740 -0.232
-10.899 -10.740 -0.232
-10.899 -10.740 -0.232
-10.899 -10.740 -0.232
-10.899 -10.740 -0.232
-10.899 -10.740 -0.232
-10.899 -10.740 -0.232
-10.899 -10.740 -0.232
-10.899 -10.740 -0.232
-10.899 -10.740 -0.232
-10.899 -10.740 -0.232
-10.899 -10.740 -0.232
-10.899 -10.740 -0.232
-10.899 -10.740 -0.232
-10.899 -10.740 -0.232
-10.899 -10.740 -0.232
-10.899 -10.740 -0.232
-10.899 -10.740 -0.232
-10.899 -10.740 -0.232
-10.899 -10.740 -0.232
-10.899 -10.740 -0.232
-10.899 -10.740 -0.232
-10.899 -10.740 -0.232
-10.899 -10.740 -0.232
-10.899 -10.740 -0.232
-10.899 -10.740 -0.232
-10.899 -10.740 -0.232
-10.899 -10.740 -0.232
-10.899 -10.740 -0.232
-10.899 -10.740 -0.232
-10.899 -10.740 -0.232
-10.899 -10.740 -0.232
-10.899 -10.740 -0.232
-10.899 -10.740 -0.232
-10.899 -10.740 -0.232
-10.899 -10.740 -0.232
-10.899 -10.740 -0.232
-10.899 -10.740 -0.232
-10.899 -10.740 -0.232
-10.899 -10.740 -0.232
-10.899 -10.740 -0.232
-10.899 -10.740 -0.232
-10.899 -10.740 -0.232
-10.899 -10.740 -0.232
-10.899 -10.740 -0.232
-10.899 -10.740 -0.232
-10.899 -10.740 -0.232
-10.899 -10.740 -0.232
-10.872 -10.729 -0.216
-10.899 -10.740 -0.232
-10.899 -10.740 -0.232
-10.872 -10.729 -0.216
-10.872 -10.729 -0.216
-10.872 -10.729 -0.216
-10.872 -10.729 -0.216
-10.899 -10.740 -0.232
-10.899 -10.740 -0.232
-10.899 -10.740 -0.232
-10.872 -10.729 -0.216
-10.872 -10.729 -0.216
-10.899 -10.740 -0.232
-10.899 -10.740 -0.232
-10.899 -10.740 -0.232
-10.872 -10.729 -0.216
-10.899 -10.740 -0.232
-10.899 -10.740 -0.232
-10.872 -10.729 -0.216
-10.872 -10.729 -0.216
-10.872 -10.729 -0.216
-10.899 -10.740 -0.232
-10.899 -10.740 -0.232
-10.899 -10.740 -0.232
-10.899 -10.740 -0.232
-10.899 -10.740 -0.232
-10.899 -10.740 -0.232
-10.899 -10.740 -0.232
-10.899 -10.740 -0.232
-10.899 -10.740 -0.232
-10.899 -10.740 -0.232
-10.899 -10.740 -0.232
-10.899 -10.740 -0.232
-10.899 -10.740 -0.232
-10.872 -10.729 -0.216
-10.872 -10.729 -0.216
-10.872 -10.729 -0.216
-10.872 -10.729 -0.216
-10.872 -10.729 -0.216
-10.899 -10.740 -0.232
-10.899 -10.740 -0.232
-10.899 -10.740 -0.232
-10.899 -10.740 -0.232
-10.899 -10.740 -0.232
-10.899 -10.740 -0.232
-10.899 -10.740 -0.232
-10.899 -10.740 -0.232
-10.899 -10.740 -0.232
-10.899 -10.740 -0.232
-10.899 -10.740 -0.232
-10.899 -10.740 -0.232
-10.899 -10.740 -0.232
-10.899 -10.740 -0.232
-10.899 -10.740 -0.232
-10.899 -10.740 -0.232
-10.899 -10.740 -0.232
-10.899 -10.740 -0.232
-10.899 -10.740 -0.232
-10.899 -10.740 -0.232
-10.872 -10.729 -0.216
-10.872 -10.729 -0.216
-10.899 -10.740 -0.232
-10.899 -10.740 -0.232
-10.899 -10.740 -0.232
-10.872 -10.729 -0.216
-10.872 -10.729 -0.216
-10.899 -10.740 -0.232
-10.899 -10.740 -0.232
-10.899 -10.740 -0.232
-10.872 -10.729 -0.216
-10.899 -10.740 -0.232
-10.872 -10.729 -0.216
-10.872 -10.729 -0.216
-10.872 -10.729 -0.216
-10.899 -10.740 -0.232
-10.872 -10.729 -0.216
-10.872 -10.729 -0.216
-10.872 -10.729 -0.216
-10.899 -10.740 -0.232
-10.899 -10.740 -0.232
-10.899 -10.739 -0.233
-10.899 -10.740 -0.232
-10.899 -10.740 -0.232
-10.899 -10.740 -0.232
-10.899 -10.740 -0.232
-10.899 -10.740 -0.232
-10.899 -10.740 -0.232
-10.899 -10.740 -0.232
-10.872 -10.731 -0.214
-10.899 -10.740 -0.232
-10.899 -10.740 -0.232
-10.899 -10.740 -0.232
-10.899 -10.740 -0.232
-10.899 -10.740 -0.232
-10.899 -10.740 -0.232
-10.899 -10.740 -0.232
-10.899 -10.740 -0.232
-10.899 -10.740 -0.232
-10.899 -10.740 -0.232
-10.899 -10.740 -0.232
-10.899 -10.740 -0.232
-10.899 -10.740 -0.232
-10.899 -10.740 -0.232
-10.899 -10.740 -0.232
-10.899 -10.740 -0.232
-10.899 -10.740 -0.232
-10.899 -10.740 -0.232
-10.899 -10.740 -0.232
-10.899 -10.740 -0.232
-10.899 -10.740 -0.232
-10.899 -10.740 -0.232
-10.899 -10.740 -0.232
-10.899 -10.740 -0.232
-10.899 -10.740 -0.232
-10.899 -10.740 -0.232
-10.899 -10.740 -0.232
-10.899 -10.740 -0.232
-10.899 -10.740 -0.232
-10.899 -10.740 -0.232
-10.899 -10.740 -0.232
-10.899 -10.740 -0.232
-10.843 -10.548 -0.368
-10.896 -10.729 -0.238
-10.899 -10.740 -0.232
-10.899 -10.740 -0.232
-10.899 -10.740 -0.232
-10.899 -10.740 -0.232
-10.899 -10.740 -0.232
-10.899 -10.740 -0.232
-10.899 -10.740 -0.232
-10.899 -10.740 -0.232
-10.899 -10.737 -0.235
-10.899 -10.740 -0.232
-10.899 -10.740 -0.232
-10.899 -10.740 -0.232
-10.899 -10.740 -0.232
-10.899 -10.740 -0.232
-10.899 -10.740 -0.232
-10.899 -10.740 -0.232
-10.899 -10.740 -0.232
-10.899 -10.740 -0.232
-10.899 -10.740 -0.232
-10.899 -10.740 -0.232
-10.899 -10.740 -0.232
-10.899 -10.740 -0.232
-10.899 -10.740 -0.232
-10.899 -10.740 -0.232
-10.899 -10.740 -0.232
-10.899 -10.740 -0.232
-10.899 -10.740 -0.232
-10.899 -10.740 -0.232
-10.899 -10.740 -0.232
-10.899 -10.740 -0.232
-10.899 -10.740 -0.232
-10.899 -10.740 -0.232
-10.899 -10.740 -0.232
-10.899 -10.740 -0.232
-10.899 -10.740 -0.232
-10.899 -10.740 -0.232
-10.899 -10.740 -0.232
-8.266 -8.178 -0.158
-10.872 -10.729 -0.216
-10.872 -10.729 -0.216
-10.872 -10.729 -0.216
-10.899 -10.740 -0.232
-10.899 -10.740 -0.232
-10.899 -10.741 -0.231
-10.899 -10.740 -0.232
-10.899 -10.740 -0.232
-10.899 -10.740 -0.232
-10.899 -10.740 -0.232
-10.899 -10.740 -0.232
-8.266 -8.178 -0.158
-8.266 -8.178 -0.158
-10.872 -10.729 -0.216
-10.871 -10.722 -0.223
-8.265 -8.178 -0.157
-8.265 -8.178 -0.157
-10.899 -10.740 -0.232
-10.899 -10.740 -0.232
-10.891 -10.683 -0.286
-10.899 -10.740 -0.232
-10.899 -10.740 -0.232
-10.899 -10.740 -0.232
-10.899 -10.740 -0.232
-10.899 -10.740 -0.232
-10.899 -10.740 -0.232
-10.899 -10.740 -0.232
-8.265 -8.178 -0.157
-10.899 -10.740 -0.232
-10.899 -10.740 -0.232
-10.899 -10.740 -0.232
-10.899 -10.740 -0.232
-10.872 -10.729 -0.216
-8.265 -8.178 -0.157
-10.899 -10.740 -0.232
-8.265 -8.178 -0.157
-10.899 -10.740 -0.232
-10.899 -10.740 -0.232
-10.898 -10.738 -0.234
-10.899 -10.740 -0.232
-8.265 -8.178 -0.157
-10.872 -10.729 -0.216
-10.872 -10.729 -0.216
-7.595 -7.710 0.031
-10.872 -10.729 -0.216
-10.899 -10.740 -0.232
-10.899 -10.739 -0.233
-10.899 -10.740 -0.232
-10.899 -10.740 -0.232
-10.899 -10.740 -0.232
-10.899 -10.741 -0.231
-10.872 -10.729 -0.216
-10.899 -10.740 -0.232
-10.899 -10.740 -0.232
-10.899 -10.740 -0.232
-10.899 -10.740 -0.232
-10.899 -10.740 -0.232
-10.899 -10.740 -0.232
-10.899 -10.740 -0.232
-8.265 -8.178 -0.157
-10.845 -10.719 -0.185
-8.265 -8.178 -0.157
-8.265 -8.178 -0.157
-10.899 -10.740 -0.232
-10.899 -10.747 -0.224
-10.759 -10.515 -0.120
-10.899 -10.740 -0.232
-10.899 -10.741 -0.231
-10.899 -10.740 -0.232
-10.899 -10.740 -0.232
-7.595 -7.710 0.031
-8.265 -8.178 -0.157
-8.265 -8.178 -0.157
-10.897 -10.749 -0.222
-10.899 -10.740 -0.232
-8.266 -8.178 -0.158
-10.899 -10.740 -0.232
-10.872 -10.729 -0.216
-10.872 -10.729 -0.216
-8.266 -8.178 -0.158
-10.872 -10.729 -0.216
-10.899 -10.738 -0.234
-8.265 -8.178 -0.157
-10.899 -10.740 -0.232
-10.899 -10.740 -0.232
-10.899 -10.740 -0.232
-10.899 -10.740 -0.232
-10.899 -10.740 -0.232
-10.899 -10.740 -0.232
-10.899 -10.740 -0.232
-7.595 -7.710 0.031
-7.595 -7.710 0.031
-10.899 -10.740 -0.232
-8.265 -8.178 -0.157
-8.265 -8.178 -0.157
-7.595 -7.710 0.031
-10.899 -10.740 -0.232
-10.872 -10.729 -0.216
-10.872 -10.729 -0.216
-10.872 -10.729 -0.216
-8.265 -8.178 -0.157
-10.871 -10.732 -0.211
-8.265 -8.178 -0.156
-10.782 -10.528 -0.337
-10.899 -10.740 -0.232
-10.899 -10.736 -0.236
-10.895 -10.716 -0.252
-10.898 -10.730 -0.241
-10.899 -10.740 -0.232
-10.899 -10.740 -0.232
-10.899 -10.740 -0.232
-10.899 -10.740 -0.232
-10.899 -10.740 -0.232
-8.265 -8.178 -0.157
-7.595 -7.710 0.031
-10.872 -10.729 -0.216
-10.872 -10.729 -0.216
-10.872 -10.729 -0.216
-10.872 -10.729 -0.216
-10.899 -10.740 -0.232
-7.595 -7.710 0.031
-8.265 -8.178 -0.157
-7.595 -7.710 0.031
-7.595 -7.710 0.031
-10.508 -10.122 -0.455
-8.274 -8.177 -0.167
-8.274 -8.177 -0.167
-8.274 -8.177 -0.167
-8.274 -8.177 -0.167
-8.274 -8.177 -0.167
-8.274 -8.177 -0.167
-8.274 -8.177 -0.167
-8.274 -8.177 -0.167
-10.899 -10.752 -0.220
-7.614 -7.709 0.010
-7.614 -7.709 0.010
-8.276 -8.178 -0.168
-7.614 -7.709 0.010
-10.900 -10.740 -0.233
-10.900 -10.740 -0.233
-10.900 -10.740 -0.233
-10.900 -10.742 -0.230
-10.900 -10.740 -0.233
-10.900 -10.740 -0.233
-10.900 -10.740 -0.232
-10.900 -10.740 -0.233
-10.900 -10.740 -0.233
-10.900 -10.740 -0.233
-8.274 -8.177 -0.167
-10.900 -10.740 -0.233
-7.614 -7.709 0.010
-7.614 -7.709 0.010
-7.614 -7.709 0.010
-10.900 -10.740 -0.233
-8.274 -8.177 -0.167
-7.614 -7.709 0.010
-8.274 -8.177 -0.167
-10.900 -10.741 -0.232
-8.276 -8.178 -0.168
-7.614 -7.709 0.010
-10.900 -10.740 -0.233
-10.900 -10.740 -0.233
-10.900 -10.740 -0.232
-10.686 -10.310 -0.466
-10.900 -10.740 -0.233
-7.614 -7.709 0.010
-8.276 -8.178 -0.168
-10.900 -10.740 -0.233
-7.614 -7.709 0.010
-7.614 -7.709 0.010
-10.900 -10.740 -0.233
-7.614 -7.709 0.010
-10.872 -10.730 -0.216
-10.900 -10.740 -0.233
-10.900 -10.740 -0.233
-10.900 -10.740 -0.233
-7.614 -7.709 0.010
-10.900 -10.740 -0.233
-10.900 -10.740 -0.233
-10.900 -10.740 -0.233
-7.614 -7.709 0.010
-10.865 -10.729 -0.209
-10.535 -10.109 -0.495
-10.900 -10.740 -0.233
-7.614 -7.709 0.010
-10.900 -10.737 -0.236
-10.900 -10.741 -0.232
-10.900 -10.740 -0.233
-10.900 -10.740 -0.233
-7.614 -7.709 0.010
-10.900 -10.740 -0.233
-10.872 -10.729 -0.217
-10.456 -10.113 -0.447
-7.612 -7.709 0.012
-7.612 -7.709 0.012
-7.612 -7.709 0.012
-10.900 -10.740 -0.233
-10.898 -10.750 -0.224
-10.900 -10.740 -0.233
-10.900 -10.740 -0.233
-10.900 -10.740 -0.232
-10.900 -10.739 -0.233
-8.273 -8.178 -0.166
-8.273 -8.178 -0.166
-8.273 -8.178 -0.166
-10.900 -10.740 -0.233
-10.900 -10.740 -0.233
-10.872 -10.729 -0.216
-10.900 -10.740 -0.233
-10.900 -10.740 -0.233
-10.900 -10.740 -0.233
-10.900 -10.740 -0.233
-10.900 -10.740 -0.233
-10.865 -10.730 -0.209
-7.614 -7.709 0.010
-10.900 -10.741 -0.232
-10.899 -10.746 -0.227
-10.900 -10.740 -0.233
-10.900 -10.740 -0.232
-10.900 -10.740 -0.232
-10.900 -10.740 -0.233
-7.614 -7.709 0.010
-10.879 -10.672 -0.282
-10.900 -10.740 -0.233
-7.614 -7.709 0.010
-7.614 -7.709 0.010
-7.614 -7.709 0.010
-10.900 -10.740 -0.233
-7.614 -7.709 0.010
-10.900 -10.738 -0.235
-8.274 -8.177 -0.166
-10.900 -10.740 -0.233
-7.614 -7.709 0.010
-10.900 -10.740 -0.233
-10.872 -10.729 -0.216
-10.900 -10.740 -0.233
-10.340 -9.833 -0.514
-10.389 -9.984 -0.460
-7.614 -7.709 0.010
-10.900 -10.740 -0.233
-10.900 -10.740 -0.233
-9.590 -9.408 -0.329
-10.900 -10.740 -0.233
-10.900 -10.740 -0.232
-10.900 -10.740 -0.233
-10.900 -10.740 -0.233
-10.900 -10.740 -0.233
-10.865 -10.729 -0.209
-10.900 -10.740 -0.233
-10.900 -10.743 -0.229
-10.900 -10.740 -0.233
-7.614 -7.709 0.010
-10.865 -10.729 -0.209
-7.614 -7.709 0.010
-10.900 -10.740 -0.233
-10.900 -10.740 -0.233
-10.900 -10.740 -0.233
-10.900 -10.740 -0.233
-10.900 -10.740 -0.233
-10.900 -10.739 -0.233
-10.900 -10.741 -0.232
-10.900 -10.740 -0.233
-10.900 -10.742 -0.231
-10.900 -10.740 -0.233
-10.900 -10.740 -0.233
-10.900 -10.740 -0.233
-10.899 -10.740 -0.232
-10.899 -10.739 -0.234
-10.899 -10.740 -0.232
-7.595 -7.710 0.031
-7.595 -7.710 0.031
-10.899 -10.740 -0.232
-10.899 -10.740 -0.232
-10.899 -10.740 -0.232
-10.899 -10.740 -0.232
-7.595 -7.710 0.031
-10.899 -10.740 -0.232
-10.865 -10.730 -0.209
-10.900 -10.740 -0.233
-7.614 -7.709 0.010
-7.614 -7.709 0.010
-7.614 -7.709 0.010
-7.614 -7.709 0.010
-10.900 -10.740 -0.233
-10.900 -10.739 -0.234
-10.900 -10.740 -0.233
-10.865 -10.730 -0.209
-10.865 -10.729 -0.209
-10.900 -10.740 -0.233
-10.900 -10.740 -0.233
-10.900 -10.739 -0.234
-10.900 -10.740 -0.233
-10.865 -10.729 -0.209
-10.865 -10.729 -0.210
-7.614 -7.709 0.010
-10.900 -10.740 -0.233
-10.900 -10.739 -0.233
-10.865 -10.729 -0.209
-10.865 -10.729 -0.209
-10.865 -10.729 -0.209
-7.614 -7.709 0.010
-10.865 -10.730 -0.208
-10.865 -10.729 -0.209
-7.614 -7.709 0.010
-7.614 -7.709 0.010
-10.865 -10.726 -0.212
-10.865 -10.727 -0.211
-7.614 -7.709 0.010
-10.865 -10.729 -0.209
-10.865 -10.729 -0.209
-10.865 -10.728 -0.210
-10.865 -10.729 -0.209
-8.460 -8.479 -0.052
-10.865 -10.729 -0.209
-10.865 -10.729 -0.210
-10.865 -10.734 -0.205
-10.865 -10.731 -0.208
-10.865 -10.729 -0.209
-10.865 -10.729 -0.210
-10.865 -10.729 -0.209
-10.865 -10.729 -0.209
-10.865 -10.729 -0.209
-10.865 -10.729 -0.209
-10.865 -10.730 -0.209
-10.865 -10.726 -0.212
-10.865 -10.729 -0.209
-10.865 -10.728 -0.211
-10.865 -10.720 -0.219
-10.865 -10.729 -0.209
-10.865 -10.729 -0.209
-10.865 -10.729 -0.210
-10.864 -10.705 -0.234
-10.865 -10.728 -0.211
-10.865 -10.730 -0.209
-10.900 -10.740 -0.233
-10.900 -10.740 -0.233
-10.900 -10.740 -0.233
-10.899 -10.728 -0.245
-10.900 -10.740 -0.233
-10.900 -10.740 -0.233
-10.900 -10.740 -0.233
-10.900 -10.740 -0.233
-10.900 -10.740 -0.233
-10.900 -10.740 -0.233
-10.900 -10.739 -0.234
-10.900 -10.740 -0.233
-10.900 -10.740 -0.233
-10.900 -10.740 -0.233
-10.900 -10.739 -0.234
-10.900 -10.740 -0.233
-10.900 -10.736 -0.237
-10.900 -10.740 -0.233
-10.900 -10.740 -0.233
-10.900 -10.740 -0.233
-10.900 -10.742 -0.231
-10.900 -10.740 -0.233
-10.900 -10.740 -0.233
-10.900 -10.739 -0.233
-10.900 -10.741 -0.232
-10.900 -10.740 -0.232
-10.900 -10.740 -0.233
-10.900 -10.740 -0.233
-10.900 -10.739 -0.233
-10.900 -10.740 -0.233
-10.900 -10.740 -0.233
-10.900 -10.740 -0.233
-10.900 -10.740 -0.233
-10.900 -10.741 -0.232
-10.900 -10.740 -0.233
-10.900 -10.740 -0.233
-10.900 -10.740 -0.233
-10.900 -10.740 -0.233
-10.898 -10.715 -0.256
-10.900 -10.742 -0.230
-10.900 -10.740 -0.233
-10.900 -10.741 -0.232
-10.898 -10.724 -0.248
-10.900 -10.740 -0.233
-10.900 -10.740 -0.233
-10.900 -10.740 -0.233
-10.900 -10.740 -0.233
-10.900 -10.740 -0.233
-10.900 -10.740 -0.233
-10.900 -10.740 -0.233
-10.899 -10.733 -0.240
-10.899 -10.738 -0.234
-10.900 -10.740 -0.233
-10.900 -10.740 -0.233
-10.900 -10.740 -0.233
-10.900 -10.740 -0.233
-10.900 -10.740 -0.233
-10.899 -10.744 -0.227
-10.900 -10.740 -0.233
-10.900 -10.740 -0.233
-10.900 -10.739 -0.233
-10.900 -10.740 -0.233
-10.900 -10.739 -0.234
-10.900 -10.733 -0.240
-10.900 -10.738 -0.235
-10.900 -10.740 -0.233
-10.900 -10.740 -0.233
-10.900 -10.740 -0.233
-10.900 -10.740 -0.233
-10.900 -10.740 -0.234
-10.900 -10.742 -0.231
-7.608 -7.709 0.015
-10.900 -10.740 -0.233
-10.900 -10.739 -0.234
-7.614 -7.709 0.010
-10.900 -10.739 -0.234
-10.899 -10.751 -0.220
-10.900 -10.738 -0.235
-10.900 -10.740 -0.233
-10.900 -10.740 -0.233
-10.899 -10.727 -0.246
-10.900 -10.739 -0.234
-10.897 -10.762 -0.207
-10.900 -10.737 -0.236
-10.900 -10.740 -0.233
-7.614 -7.709 0.010
-10.900 -10.740 -0.233
-10.900 -10.740 -0.233
-10.900 -10.740 -0.233
-10.900 -10.740 -0.233
-10.900 -10.740 -0.233
-10.899 -10.739 -0.232
-10.872 -10.730 -0.215
-10.900 -10.740 -0.233
-10.900 -10.740 -0.233
-10.900 -10.740 -0.233
-10.889 -10.761 -0.204
-7.608 -7.709 0.015
-7.608 -7.709 0.015
-10.872 -10.729 -0.216
-10.872 -10.730 -0.216
-7.608 -7.709 0.015
-10.900 -10.740 -0.233
-10.900 -10.740 -0.233
-10.872 -10.731 -0.215
-10.872 -10.729 -0.216
-10.900 -10.740 -0.233
-10.872 -10.730 -0.216
-10.900 -10.740 -0.233
-10.900 -10.740 -0.233
-10.900 -10.741 -0.232
-10.872 -10.729 -0.217
-10.900 -10.741 -0.231
-10.900 -10.740 -0.233
-10.872 -10.717 -0.229
-10.872 -10.731 -0.215
-10.872 -10.729 -0.217
-10.872 -10.729 -0.216
-10.872 -10.729 -0.217
-10.864 -10.659 -0.276
-10.872 -10.731 -0.214
-10.872 -10.729 -0.217
-10.872 -10.729 -0.216
-10.872 -10.729 -0.217
-10.872 -10.729 -0.217
-10.872 -10.729 -0.217
-10.872 -10.729 -0.217
-10.872 -10.729 -0.217
-10.872 -10.729 -0.216
-10.872 -10.729 -0.217
-10.872 -10.729 -0.217
-10.872 -10.730 -0.216
-10.872 -10.729 -0.217
-10.872 -10.730 -0.216
-10.872 -10.729 -0.217
-10.872 -10.729 -0.216
-10.872 -10.729 -0.217
-10.872 -10.729 -0.217
-10.872 -10.730 -0.216
-10.872 -10.729 -0.217
-5.735 -6.924 1.090
-10.872 -10.729 -0.217
-10.872 -10.730 -0.216
-10.870 -10.729 -0.203
-10.872 -10.729 -0.216
-5.735 -6.924 1.090
-10.872 -10.728 -0.217
-10.872 -10.729 -0.217
-10.872 -10.731 -0.215
-10.872 -10.730 -0.216
-7.608 -7.709 0.015
-10.872 -10.729 -0.217
-10.872 -10.730 -0.216
-10.872 -10.733 -0.213
-10.872 -10.736 -0.210
-10.872 -10.728 -0.218
-10.872 -10.728 -0.218
-10.871 -10.722 -0.224
-10.872 -10.729 -0.217
-5.735 -6.924 1.090
-10.872 -10.728 -0.217
-10.872 -10.729 -0.216
-10.872 -10.726 -0.221
-7.608 -7.709 0.015
-7.608 -7.709 0.015
-5.735 -6.924 1.090
-5.735 -6.924 1.090
-5.735 -6.924 1.090
-5.735 -6.924 1.090
-7.608 -7.709 0.015
-10.878 -10.725 -0.227
-10.878 -10.725 -0.227
-5.731 -6.926 1.095
-7.590 -7.710 0.035
-10.878 -10.715 -0.236
-10.878 -10.725 -0.227
-10.878 -10.725 -0.227
-10.878 -10.728 -0.223
-10.878 -10.724 -0.227
-5.731 -6.926 1.095
-5.731 -6.926 1.095
-10.878 -10.721 -0.231
-10.878 -10.724 -0.227
-10.878 -10.712 -0.239
-10.878 -10.725 -0.227
-10.878 -10.728 -0.223
-10.878 -10.725 -0.227
-10.878 -10.725 -0.227
-5.731 -6.926 1.095
-7.590 -7.710 0.035
-10.878 -10.727 -0.225
-5.731 -6.926 1.095
-5.731 -6.926 1.095
-5.731 -6.926 1.095
-5.731 -6.926 1.095
-5.731 -6.926 1.095
-7.590 -7.710 0.035
-10.878 -10.725 -0.227
-7.590 -7.710 0.035
-10.878 -10.725 -0.227
-6.645 -6.914 0.174
-8.266 -8.177 -0.158
-6.645 -6.914 0.174
-10.878 -10.724 -0.227
-7.590 -7.710 0.035
-5.731 -6.926 1.095
-7.590 -7.710 0.035
-7.590 -7.710 0.035
-5.731 -6.926 1.095
-7.590 -7.710 0.035
-10.878 -10.725 -0.226
-5.937 -6.761 0.746
-5.937 -6.761 0.746
-5.937 -6.761 0.746
-10.878 -10.722 -0.230
-10.878 -10.724 -0.227
-5.731 -6.926 1.095
-6.645 -6.914 0.174
-6.645 -6.914 0.174
-6.645 -6.914 0.174
-6.645 -6.914 0.174
-6.645 -6.914 0.174
-10.878 -10.725 -0.227
-10.873 -10.723 -0.222
-5.937 -6.761 0.746
-10.878 -10.725 -0.226
-5.937 -6.761 0.746
-5.937 -6.761 0.746
-5.937 -6.761 0.746
-5.937 -6.761 0.746
-10.878 -10.724 -0.228
-10.878 -10.724 -0.228
-7.590 -7.710 0.035
-5.937 -6.761 0.746
-5.937 -6.761 0.746
-10.878 -10.727 -0.224
-10.701 -10.370 -0.424
-7.590 -7.710 0.035
-7.590 -7.710 0.035
-10.863 -10.673 -0.263
-7.590 -7.710 0.035
-8.266 -8.178 -0.158
-7.590 -7.710 0.035
-6.645 -6.914 0.174
-5.731 -6.926 1.095
-5.731 -6.926 1.095
-5.731 -6.926 1.095
-5.731 -6.926 1.095
-10.878 -10.720 -0.232
-7.590 -7.710 0.035
-10.878 -10.718 -0.234
-7.590 -7.710 0.034
-7.590 -7.710 0.035
-10.878 -10.724 -0.228
-10.878 -10.725 -0.227
-7.590 -7.710 0.035
-5.937 -6.761 0.746
-5.937 -6.761 0.746
-10.878 -10.727 -0.225
-5.731 -6.926 1.095
-5.937 -6.761 0.746
-10.875 -10.684 -0.266
-10.878 -10.724 -0.228
-6.645 -6.914 0.174
-5.731 -6.926 1.095
-6.645 -6.914 0.174
-5.731 -6.926 1.095
-7.590 -7.710 0.035
-5.937 -6.761 0.746
-10.878 -10.725 -0.227
-7.590 -7.710 0.035
-5.937 -6.761 0.746
-5.937 -6.761 0.746
-5.937 -6.761 0.746
-10.878 -10.727 -0.225
-10.878 -10.725 -0.226
-10.878 -10.727 -0.224
-10.878 -10.725 -0.227
-7.590 -7.710 0.035
-5.731 -6.926 1.095
-10.878 -10.726 -0.226
-7.590 -7.710 0.035
-5.937 -6.761 0.746
-5.937 -6.761 0.746
-5.937 -6.761 0.746
-7.590 -7.710 0.035
-5.731 -6.926 1.095
-10.870 -10.680 -0.265
-7.590 -7.710 0.035
-8.246 -8.159 -0.154
-10.878 -10.717 -0.235
-7.583 -7.702 0.029
-10.855 -10.760 -0.166
-7.586 -7.713 0.039
-5.731 -6.926 1.095
-8.266 -8.178 -0.158
-7.590 -7.710 0.035
-10.878 -10.724 -0.228
-10.680 -10.371 -0.435
-10.878 -10.725 -0.226
-5.937 -6.764 0.748
-5.937 -6.761 0.746
-5.937 -6.761 0.746
-7.590 -7.710 0.035
-7.590 -7.710 0.035
-5.937 -6.761 0.746
-5.731 -6.926 1.095
-5.731 -6.926 1.095
-5.731 -6.926 1.095
-8.266 -8.178 -0.158
-7.590 -7.710 0.035
-10.876 -10.736 -0.210
-10.878 -10.725 -0.227
-7.590 -7.710 0.035
-10.878 -10.726 -0.226
-5.937 -6.761 0.746
-7.590 -7.710 0.035
-5.937 -6.761 0.746
-5.937 -6.761 0.746
-7.590 -7.710 0.035
-10.878 -10.725 -0.227
-10.878 -10.725 -0.227
-10.878 -10.725 -0.227
-10.878 -10.725 -0.226
-5.937 -6.761 0.746
-7.590 -7.710 0.035
-7.590 -7.710 0.035
-10.878 -10.725 -0.227
-7.590 -7.710 0.035
-7.590 -7.710 0.035
-5.937 -6.762 0.746
-10.771 -10.439 -0.388
-10.878 -10.725 -0.226
-10.878 -10.726 -0.226
-9.915 -10.483 0.418
-7.590 -7.710 0.035
-7.590 -7.710 0.035
-10.878 -10.725 -0.227
-10.878 -10.724 -0.228
-7.590 -7.710 0.035
-10.878 -10.724 -0.227
-10.878 -10.726 -0.225
-7.590 -7.710 0.035
-10.878 -10.736 -0.215
-7.590 -7.710 0.035
-10.878 -10.725 -0.227
-10.877 -10.741 -0.209
-10.772 -10.733 -0.108
-6.645 -6.914 0.174
-8.266 -8.178 -0.158
-10.878 -10.725 -0.227
-10.878 -10.727 -0.225
-10.878 -10.718 -0.234
-8.266 -8.178 -0.158
-10.878 -10.725 -0.227
-10.878 -10.725 -0.227
-7.590 -7.710 0.035
-10.348 -10.027 -0.415
-10.877 -10.710 -0.243
-5.731 -6.926 1.095
-7.590 -7.710 0.035
-5.937 -6.761 0.746
-5.937 -6.761 0.746
-6.645 -6.914 0.174
-5.937 -6.761 0.745
-10.878 -10.724 -0.228
-10.875 -10.754 -0.193
-5.731 -6.926 1.095
-10.783 -10.711 -0.138
-9.711 -10.514 0.735
-5.731 -6.926 1.095
-10.878 -10.727 -0.225
-5.731 -6.926 1.095
-5.731 -6.926 1.095
-5.731 -6.926 1.095
-5.731 -6.926 1.095
-9.837 -10.576 0.425
-5.731 -6.926 1.095
-10.878 -10.725 -0.227
-10.878 -10.729 -0.222
-10.824 -10.758 -0.120
-10.878 -10.728 -0.223
-10.878 -10.725 -0.227
-8.266 -8.178 -0.158
-10.878 -10.721 -0.231
-7.590 -7.710 0.035
-7.581 -7.709 0.042
-10.878 -10.725 -0.227
-10.878 -10.726 -0.226
-10.878 -10.725 -0.226
-7.590 -7.710 0.035
-10.878 -10.728 -0.224
-10.878 -10.725 -0.227
-7.590 -7.710 0.035
-7.590 -7.710 0.035
-8.266 -8.178 -0.158
-10.648 -10.232 -0.491
-7.590 -7.710 0.035
-10.878 -10.725 -0.226
-6.645 -6.914 0.174
-10.815 -10.500 -0.396
-10.869 -10.660 -0.284
-7.590 -7.710 0.035
-10.878 -10.718 -0.234
-8.264 -8.175 -0.156
-5.731 -6.926 1.095
-10.878 -10.725 -0.227
-10.878 -10.725 -0.227
-10.878 -10.731 -0.221
-10.878 -10.729 -0.222
-10.827 -10.768 -0.142
-10.877 -10.703 -0.247
-7.590 -7.710 0.035
-10.722 -10.652 -0.141
-7.590 -7.710 0.035
-10.825 -10.521 -0.382
-10.657 -10.446 -0.277
-7.590 -7.710 0.035
-8.266 -8.176 -0.159
-10.878 -10.724 -0.227
-10.878 -10.726 -0.225
-10.878 -10.726 -0.226
-7.590 -7.710 0.035
-10.878 -10.726 -0.225
-10.878 -10.725 -0.226
-5.937 -6.761 0.746
-7.590 -7.710 0.035
-10.869 -10.671 -0.268
-10.878 -10.730 -0.221
-9.909 -10.420 0.420
-10.814 -10.577 -0.343
-6.645 -6.914 0.174
-10.878 -10.725 -0.227
-7.590 -7.710 0.035
-10.878 -10.724 -0.227
-10.878 -10.725 -0.227
-10.878 -10.731 -0.221
-10.878 -10.725 -0.227
-10.878 -10.723 -0.228
-5.937 -6.761 0.746
-7.590 -7.710 0.035
-7.590 -7.710 0.035
-7.590 -7.710 0.035
-7.590 -7.710 0.035
-10.878 -10.730 -0.221
-7.590 -7.707 0.035
-10.878 -10.725 -0.227
-10.878 -10.720 -0.231
-10.809 -10.812 -0.083
-7.590 -7.710 0.035
-10.867 -10.762 -0.173
-7.590 -7.710 0.035
-7.590 -7.710 0.035
-10.877 -10.744 -0.205
-5.731 -6.926 1.095
-7.589 -7.707 0.035
-10.878 -10.728 -0.223
-10.872 -10.723 -0.222
-10.871 -10.701 -0.244
-10.872 -10.728 -0.217
-10.872 -10.723 -0.221
-10.872 -10.732 -0.212
-10.872 -10.729 -0.216
-10.871 -10.714 -0.231
-10.872 -10.725 -0.220
-10.872 -10.725 -0.220
-10.870 -10.721 -0.222
-10.872 -10.733 -0.211
-10.869 -10.750 -0.191
-10.871 -10.704 -0.241
-10.872 -10.725 -0.220
-10.777 -10.446 -0.417
-10.872 -10.722 -0.223
-10.870 -10.713 -0.234
-10.879 -10.725 -0.228
-10.872 -10.665 -0.283
-10.870 -10.657 -0.283
-10.879 -10.718 -0.235
-10.872 -10.722 -0.223
-10.869 -10.686 -0.255
-10.879 -10.724 -0.229
-10.879 -10.724 -0.228
-10.879 -10.725 -0.228
-7.594 -7.334 -0.345
-7.594 -7.334 -0.345
-10.870 -10.698 -0.247
-10.858 -10.659 -0.288
-7.594 -7.334 -0.345
-7.594 -7.334 -0.345
-10.879 -10.727 -0.225
-10.879 -10.722 -0.230
-10.879 -10.725 -0.227
-10.879 -10.725 -0.227
-10.879 -10.729 -0.224
-10.858 -10.605 -0.328
-10.879 -10.726 -0.226
-10.879 -10.719 -0.233
-10.879 -10.720 -0.233
-10.872 -10.729 -0.215
-10.851 -10.621 -0.317
-7.594 -7.334 -0.345
-10.872 -10.724 -0.220
-7.594 -7.334 -0.345
-10.872 -10.726 -0.219
-7.594 -7.334 -0.346
-7.594 -7.334 -0.345
-7.594 -7.334 -0.345
-7.594 -7.334 -0.345
-7.594 -7.334 -0.345
-10.871 -10.709 -0.237
-7.594 -7.334 -0.345
-7.594 -7.334 -0.345
-7.594 -7.334 -0.345
-10.872 -10.718 -0.227
-7.594 -7.334 -0.345
-7.594 -7.334 -0.346
-10.859 -10.664 -0.263
-10.867 -10.695 -0.257
-7.594 -7.334 -0.345
-10.868 -10.696 -0.247
-7.594 -7.334 -0.346
-10.872 -10.723 -0.222
-10.872 -10.723 -0.222
-10.872 -10.724 -0.220
-10.872 -10.733 -0.211
-10.872 -10.724 -0.220
-10.851 -10.627 -0.303
-7.594 -7.334 -0.345
-10.858 -10.752 -0.189
-7.594 -7.334 -0.345
-10.872 -10.720 -0.225
-7.594 -7.334 -0.345
-7.594 -7.334 -0.345
-7.594 -7.334 -0.345
-7.594 -7.334 -0.345
-10.847 -10.599 -0.327
-10.871 -10.736 -0.208
-10.872 -10.724 -0.220
-10.872 -10.725 -0.220
-10.872 -10.721 -0.224
-10.871 -10.741 -0.201
-7.594 -7.334 -0.346
-7.594 -7.334 -0.345
-10.879 -10.725 -0.227
-7.652 -7.340 -0.400
-10.872 -10.724 -0.221
-10.872 -10.726 -0.219
-10.871 -10.729 -0.214
-10.873 -10.726 -0.220
-10.873 -10.725 -0.221
-10.656 -10.245 -0.491
-10.799 -10.498 -0.329
-10.873 -10.721 -0.225
-10.871 -10.741 -0.202
-7.599 -7.335 -0.351
-10.873 -10.719 -0.227
-10.694 -10.288 -0.480
-10.543 -10.098 -0.511
-10.873 -10.724 -0.222
-10.873 -10.721 -0.226
-10.542 -10.106 -0.504
-10.870 -10.701 -0.245
-10.873 -10.726 -0.220
-7.599 -7.335 -0.350
-10.845 -10.793 -0.125
-10.639 -10.255 -0.480
-10.880 -10.725 -0.228
-7.599 -7.335 -0.351
-7.599 -7.335 -0.351
-10.873 -10.724 -0.222
-10.871 -10.712 -0.234
-10.873 -10.723 -0.223
-10.873 -10.724 -0.222
-10.873 -10.726 -0.220
-10.863 -10.674 -0.266
-10.705 -10.355 -0.435
-7.599 -7.335 -0.351
-7.599 -7.335 -0.351
-7.599 -7.335 -0.351
-7.599 -7.335 -0.350
-7.599 -7.335 -0.351
-7.599 -7.335 -0.351
-7.599 -7.335 -0.350
-10.873 -10.727 -0.219
-10.867 -10.676 -0.266
-10.872 -10.712 -0.233
-10.873 -10.725 -0.221
-10.864 -10.668 -0.268
-10.873 -10.719 -0.227
-10.873 -10.725 -0.221
-10.873 -10.724 -0.222
-10.873 -10.730 -0.216
-10.872 -10.741 -0.202
-10.867 -10.667 -0.275
-10.854 -10.685 -0.279
-7.655 -7.340 -0.402
-7.655 -7.340 -0.402
-7.655 -7.340 -0.402
-7.655 -7.340 -0.402
-10.783 -10.521 -0.368
-10.873 -10.716 -0.230
-10.873 -10.724 -0.222
-10.872 -10.704 -0.242
-10.870 -10.705 -0.242
-10.873 -10.725 -0.221
-10.873 -10.723 -0.224
-10.873 -10.726 -0.220
-7.599 -7.335 -0.351
-7.599 -7.335 -0.350
-7.599 -7.335 -0.351
-7.599 -7.335 -0.350
-10.873 -10.725 -0.221
-10.873 -10.728 -0.218
-10.638 -10.215 -0.493
-10.607 -10.172 -0.506
-10.725 -10.376 -0.434
-10.803 -10.509 -0.376
-10.870 -10.695 -0.250
-10.856 -10.647 -0.285
-10.873 -10.718 -0.228
-5.889 -5.447 -0.491
-10.873 -10.724 -0.222
-7.599 -7.335 -0.351
-10.870 -10.694 -0.249
-10.640 -10.225 -0.505
-10.873 -10.722 -0.224
-7.599 -7.335 -0.351
-7.599 -7.335 -0.351
-10.873 -10.726 -0.220
-10.870 -10.688 -0.255
-10.842 -10.582 -0.339
-7.599 -7.335 -0.350
-10.872 -10.735 -0.209
-10.870 -10.729 -0.212
-10.617 -10.166 -0.517
-10.697 -10.310 -0.468
-7.599 -7.335 -0.351
-7.599 -7.335 -0.350
-10.873 -10.724 -0.222
-10.867 -10.682 -0.258
-10.873 -10.725 -0.221
-7.655 -7.340 -0.402
-7.599 -7.335 -0.350
-10.873 -10.725 -0.221
-7.655 -7.340 -0.402
-7.599 -7.335 -0.351
-10.872 -10.727 -0.218
-10.872 -10.726 -0.219
-10.851 -10.606 -0.324
-10.872 -10.724 -0.221
-7.652 -7.340 -0.400
-10.871 -10.725 -0.216
-10.733 -10.369 -0.442
-10.868 -10.693 -0.251
-10.865 -10.667 -0.272
-10.794 -10.452 -0.415
-10.853 -10.643 -0.294
-10.638 -10.216 -0.493
-10.872 -10.726 -0.219
-10.868 -10.682 -0.262
-10.872 -10.723 -0.222
-10.706 -10.322 -0.473
-10.872 -10.726 -0.219
-10.611 -10.199 -0.478
-10.850 -10.593 -0.331
-10.854 -10.636 -0.297
-10.873 -10.728 -0.217
-7.599 -7.335 -0.350
-7.599 -7.335 -0.350
-10.873 -10.724 -0.222
-7.599 -7.335 -0.350
-7.599 -7.335 -0.350
-7.599 -7.335 -0.350
-10.563 -10.093 -0.522
-10.624 -10.187 -0.506
-10.675 -10.294 -0.461
-10.755 -10.456 -0.346
-10.880 -10.724 -0.229
-10.873 -10.725 -0.222
-10.619 -10.169 -0.513
-10.873 -10.721 -0.225
-10.873 -10.722 -0.224
-7.600 -7.335 -0.351
-7.600 -7.335 -0.351
-10.854 -10.607 -0.322
-10.873 -10.736 -0.209
-7.655 -7.340 -0.402
-10.774 -10.469 -0.396
-7.600 -7.335 -0.351
-10.873 -10.722 -0.224
-10.827 -10.539 -0.374
-10.873 -10.726 -0.220
-10.873 -10.726 -0.220
-10.853 -10.653 -0.280
-10.873 -10.720 -0.226
-10.873 -10.732 -0.214
-10.871 -10.699 -0.247
-10.873 -10.726 -0.220
-10.873 -10.726 -0.220
-10.749 -10.456 -0.374
-10.873 -10.718 -0.229
-10.873 -10.725 -0.221
-10.872 -10.718 -0.229
-10.873 -10.725 -0.221
-10.856 -10.649 -0.282
-7.655 -7.340 -0.403
-10.851 -10.600 -0.330
-10.583 -10.120 -0.526
-10.873 -10.725 -0.221
-10.873 -10.724 -0.222
-10.872 -10.712 -0.233
-10.866 -10.739 -0.197
-10.855 -10.676 -0.265
-10.873 -10.717 -0.229
-10.863 -10.762 -0.177
-10.869 -10.679 -0.265
-7.599 -7.335 -0.351
-7.599 -7.335 -0.351
-10.873 -10.725 -0.221
-10.871 -10.720 -0.224
-10.632 -10.254 -0.455
-10.649 -10.245 -0.480
-7.599 -7.335 -0.351
-10.699 -10.360 -0.419
-10.873 -10.726 -0.220
-10.821 -10.553 -0.347
-10.846 -10.581 -0.342
-7.599 -7.335 -0.351
-10.873 -10.726 -0.221
-10.859 -10.635 -0.301
-10.873 -10.716 -0.229
-10.873 -10.719 -0.227
-10.873 -10.720 -0.226
-10.863 -10.760 -0.174
-10.873 -10.724 -0.222
-10.632 -10.226 -0.508
-10.837 -10.746 -0.200
-10.872 -10.733 -0.212
-10.871 -10.742 -0.202
-7.655 -7.340 -0.402
-10.873 -10.724 -0.222
-10.873 -10.724 -0.222
-10.872 -10.730 -0.216
-10.871 -10.695 -0.251
-7.599 -7.335 -0.351
-7.599 -7.335 -0.350
-10.750 -10.383 -0.446
-10.864 -10.652 -0.288
-10.865 -10.681 -0.259
-10.588 -10.166 -0.494
-10.853 -10.616 -0.315
-10.750 -10.604 -0.243
-10.774 -10.507 -0.328
-10.653 -10.243 -0.484
-10.666 -10.278 -0.464
-7.586 -7.334 -0.339
-10.826 -10.738 -0.163
-10.845 -10.625 -0.305
-7.599 -7.335 -0.350
-10.872 -10.733 -0.211
-10.870 -10.688 -0.257
-10.839 -10.567 -0.346
-5.990 -5.637 -0.408
-5.990 -5.637 -0.408
-10.768 -10.663 -0.172
-10.862 -10.698 -0.234
-10.873 -10.727 -0.220
-10.873 -10.724 -0.222
-10.772 -10.441 -0.406
-10.650 -10.240 -0.477
-7.655 -7.340 -0.402
-7.655 -7.340 -0.402
-5.990 -5.637 -0.408
-10.871 -10.707 -0.239
-10.873 -10.724 -0.222
-10.873 -10.723 -0.223
-10.873 -10.720 -0.226
-10.873 -10.725 -0.221
-10.872 -10.703 -0.242
-7.599 -7.335 -0.351
-10.827 -10.619 -0.291
-5.990 -5.637 -0.408
-5.990 -5.637 -0.408
-5.990 -5.637 -0.408
-7.655 -7.340 -0.402
-7.655 -7.340 -0.402
-10.873 -10.721 -0.226
-10.867 -10.745 -0.194
-10.872 -10.707 -0.239
-10.871 -10.691 -0.251
-7.599 -7.335 -0.350
-10.865 -10.670 -0.268
-7.599 -7.335 -0.350
-10.873 -10.723 -0.223
-10.871 -10.702 -0.243
-10.873 -10.728 -0.218
-10.872 -10.724 -0.221
-10.835 -10.724 -0.187
-10.873 -10.725 -0.221
-5.917 -5.630 -0.341
-5.917 -5.630 -0.341