-13.222 -9.692 -4.169
-14.046 -9.837 -4.239
-13.222 -9.692 -4.169
-13.222 -9.692 -4.169
-13.222 -9.692 -4.169
-14.815 -10.645 -4.437
-13.982 -9.842 -4.171
-14.815 -10.645 -4.437
-13.222 -9.692 -4.169
-11.044 -9.243 -1.870
-9.439 -10.377 0.947
-13.222 -9.692 -4.169
-12.966 -10.516 -2.487
-12.966 -10.516 -2.487
-11.042 -8.536 -2.549
-12.966 -10.516 -2.487
-9.423 -10.496 1.076
-9.423 -10.496 1.076
-14.896 -10.643 -4.523
-12.966 -10.516 -2.487
-12.966 -10.516 -2.487
-14.815 -10.645 -4.437
-14.815 -10.645 -4.437
-10.007 -10.197 0.096
-9.423 -10.496 1.076
-12.864 -10.512 -2.397
-12.089 -10.389 -1.784
-13.991 -9.841 -4.180
-11.066 -9.197 -1.946
-9.426 -10.496 1.073
-12.974 -10.516 -2.496
-9.426 -10.496 1.073
-9.785 -6.671 -3.158
-14.821 -10.645 -4.443
-11.073 -8.534 -2.582
-8.600 -9.493 0.895
-13.226 -9.692 -4.174
-8.600 -9.493 0.895
-9.441 -10.377 0.945
-12.974 -10.516 -2.496
-11.066 -9.197 -1.946
-12.974 -10.516 -2.496
-9.426 -10.496 1.073
-14.054 -9.836 -4.247
-12.974 -10.516 -2.496
-9.441 -10.377 0.945
-11.073 -8.534 -2.582
-8.600 -9.493 0.895
-11.348 -9.356 -2.052
-12.089 -10.389 -1.784
-15.448 -10.297 -5.272
-9.426 -10.496 1.073
-8.977 -9.675 0.701
-12.974 -10.516 -2.496
-9.441 -10.377 0.945
-9.441 -10.377 0.945
-14.821 -10.645 -4.443
-15.448 -10.297 -5.272
-13.010 -10.508 -2.542
-12.974 -10.516 -2.496
-15.448 -10.297 -5.272
-14.902 -10.642 -4.530
-9.441 -10.377 0.945
-9.441 -10.377 0.945
-11.073 -8.534 -2.582
-9.426 -10.496 1.073
-12.089 -10.389 -1.784
-13.226 -9.692 -4.174
-12.089 -10.389 -1.784
-12.974 -10.516 -2.496
-11.073 -8.534 -2.582
-8.600 -9.493 0.895
-14.821 -10.645 -4.443
-10.302 -8.438 -2.019
-11.073 -8.534 -2.582
-11.073 -8.534 -2.582
-14.821 -10.645 -4.443
-14.821 -10.645 -4.443
-10.300 -9.157 -1.181
-10.014 -10.180 0.066
-14.821 -10.645 -4.443
-12.974 -10.516 -2.496
-10.010 -10.198 0.093
-9.441 -10.377 0.945
-14.821 -10.645 -4.443
-12.974 -10.516 -2.496
-14.054 -9.836 -4.248
-13.009 -10.508 -2.541
-8.977 -9.675 0.701
-13.226 -9.692 -4.174
-14.821 -10.645 -4.443
-14.821 -10.645 -4.443
-14.821 -10.645 -4.443
-13.009 -10.508 -2.541
-14.821 -10.645 -4.443
-13.991 -9.841 -4.180
-12.974 -10.516 -2.496
-14.916 -10.330 -4.706
-10.300 -9.157 -1.181
-9.825 -8.625 -1.216
-13.226 -9.692 -4.174
-12.974 -10.516 -2.496
-12.974 -10.516 -2.496
-13.226 -9.692 -4.174
-14.821 -10.645 -4.443
-12.974 -10.516 -2.496
-15.448 -10.297 -5.272
-14.055 -9.836 -4.248
-8.600 -9.493 0.895
-13.009 -10.508 -2.541
-11.056 -9.237 -1.891
-13.991 -9.841 -4.180
-14.821 -10.645 -4.443
-10.300 -9.157 -1.181
-11.066 -9.197 -1.946
-13.226 -9.692 -4.174
-8.977 -9.675 0.701
-11.384 -9.352 -2.096
-14.821 -10.645 -4.443
-14.902 -10.642 -4.530
-14.821 -10.645 -4.443
-14.821 -10.645 -4.443
-12.974 -10.516 -2.496
-14.821 -10.645 -4.443
-10.239 -8.477 -1.878
-12.089 -10.389 -1.784
-12.089 -10.389 -1.784
-8.600 -9.493 0.895
-9.441 -10.377 0.945
-14.053 -9.837 -4.246
-15.448 -10.297 -5.272
-13.226 -9.692 -4.174
-14.821 -10.645 -4.443
-14.765 -10.558 -4.407
-13.991 -9.841 -4.180
-13.942 -9.521 -4.520
-14.055 -9.836 -4.248
-14.821 -10.645 -4.443
-8.600 -9.493 0.895
-14.054 -9.836 -4.247
-8.977 -9.675 0.701
-15.448 -10.297 -5.272
-12.974 -10.516 -2.496
-13.991 -9.841 -4.180
-11.056 -9.237 -1.891
-8.600 -9.493 0.895
-14.821 -10.645 -4.443
-13.942 -9.522 -4.520
-14.821 -10.645 -4.443
-14.055 -9.836 -4.248
-8.977 -9.675 0.701
-12.089 -10.389 -1.784
-13.226 -9.692 -4.174
-9.825 -8.625 -1.216
-13.942 -9.515 -4.524
-9.426 -10.496 1.073
-10.300 -9.157 -1.181
-14.821 -10.645 -4.443
-13.226 -9.692 -4.174
-12.974 -10.516 -2.496
-8.243 -9.402 1.178
-11.073 -8.534 -2.582
-14.821 -10.645 -4.443
-14.819 -10.642 -4.445
-13.226 -9.692 -4.174
-13.942 -9.521 -4.521
-9.825 -8.625 -1.216
-8.977 -9.675 0.701
-14.900 -10.643 -4.526
-14.821 -10.645 -4.443
-13.864 -9.798 -4.277
-12.635 -9.713 -3.596
-14.053 -9.836 -4.246
-12.089 -10.389 -1.784
-12.974 -10.516 -2.496
-11.073 -8.534 -2.582
-13.226 -9.692 -4.174
-14.055 -9.836 -4.248
-9.825 -8.625 -1.216
-11.176 -8.794 -2.474
-8.977 -9.675 0.701
-14.900 -10.643 -4.526
-13.226 -9.692 -4.174
-8.977 -9.675 0.701
-14.821 -10.645 -4.443
-11.066 -9.197 -1.947
-12.974 -10.516 -2.496
-13.942 -9.517 -4.525
-9.825 -8.625 -1.216
-14.821 -10.645 -4.443
-14.821 -10.645 -4.443
-14.821 -10.645 -4.443
-14.821 -10.645 -4.443
-14.821 -10.645 -4.443
-14.821 -10.645 -4.443
-12.974 -10.516 -2.496
-14.821 -10.645 -4.443
-13.226 -9.692 -4.174
-8.977 -9.675 0.701
-10.239 -8.477 -1.878
-9.441 -10.377 0.945
-13.942 -9.519 -4.520
-12.974 -10.516 -2.496
-8.977 -9.675 0.701
-11.065 -9.197 -1.946
-8.977 -9.675 0.701
-14.821 -10.645 -4.443
-8.977 -9.675 0.701
-12.974 -10.516 -2.496
-10.010 -10.198 0.093
-12.974 -10.516 -2.496
-14.821 -10.645 -4.443
-12.974 -10.516 -2.496
-8.600 -9.493 0.895
-14.821 -10.645 -4.443
-8.977 -9.675 0.701
-14.821 -10.645 -4.443
-13.226 -9.692 -4.174
-12.865 -10.512 -2.397
-14.821 -10.645 -4.443
-13.991 -9.841 -4.180
-11.073 -8.534 -2.582
-14.816 -10.648 -4.413
-12.974 -10.516 -2.496
-12.089 -10.389 -1.784
-11.170 -8.794 -2.467
-11.042 -8.536 -2.549
-12.083 -10.390 -1.776
-12.966 -10.516 -2.487
-14.815 -10.645 -4.437
-10.287 -9.160 -1.165
-12.966 -10.516 -2.487
-12.966 -10.516 -2.487
-12.966 -10.516 -2.487
-11.044 -9.243 -1.870
-12.083 -10.390 -1.776
-13.982 -9.842 -4.171
-13.222 -9.692 -4.169
-14.815 -10.645 -4.437
-10.819 -8.538 -2.323
-14.771 -10.644 -4.397
-14.821 -10.645 -4.443
-11.066 -9.197 -1.947
-14.902 -10.642 -4.530
-13.991 -9.841 -4.180
-11.056 -9.236 -1.891
-13.226 -9.692 -4.174
-10.239 -8.477 -1.878
-13.226 -9.692 -4.174
-12.865 -10.512 -2.397
-14.902 -10.643 -4.529
-13.991 -9.841 -4.180
-11.066 -9.197 -1.946
-13.942 -9.520 -4.521
-11.073 -8.534 -2.582
-11.066 -9.196 -1.947
-14.921 -10.332 -4.708
-13.226 -9.692 -4.174
-12.089 -10.389 -1.784
-14.055 -9.836 -4.248
-13.226 -9.692 -4.174
-13.991 -9.841 -4.180
-13.009 -10.508 -2.541
-15.448 -10.297 -5.272
-14.821 -10.645 -4.443
-12.089 -10.389 -1.784
-12.865 -10.512 -2.397
-11.073 -8.534 -2.582
-14.821 -10.645 -4.443
-12.089 -10.389 -1.784
-11.073 -8.534 -2.582
-14.821 -10.645 -4.443
-11.176 -8.794 -2.474
-14.821 -10.648 -4.445
-13.942 -9.521 -4.520
-14.771 -10.644 -4.397
-10.300 -9.157 -1.181
-12.974 -10.516 -2.496
-14.771 -10.644 -4.397
-14.054 -9.836 -4.248
-14.902 -10.642 -4.529
-14.902 -10.642 -4.529
-15.448 -10.297 -5.272
-11.056 -9.237 -1.891
-11.176 -8.794 -2.474
-10.569 -9.716 -0.850
-12.865 -10.512 -2.397
-11.176 -8.794 -2.474
-12.089 -10.389 -1.784
-8.977 -9.675 0.701
-12.089 -10.389 -1.784
-11.073 -8.534 -2.582
-12.089 -10.389 -1.784
-9.427 -10.377 0.959
-14.821 -10.645 -4.443
-14.821 -10.645 -4.443
-14.821 -10.641 -4.444
-14.054 -9.836 -4.248
-11.072 -8.534 -2.581
-13.942 -9.518 -4.523
-13.226 -9.692 -4.174
-12.089 -10.389 -1.783
-10.300 -9.157 -1.181
-14.723 -10.602 -4.291
-10.239 -8.477 -1.878
-14.821 -10.645 -4.443
-12.974 -10.516 -2.495
-12.865 -10.512 -2.397
-12.865 -10.512 -2.397
-14.821 -10.645 -4.443
-14.902 -10.642 -4.530
-10.650 -9.874 -0.765
-12.089 -10.389 -1.784
-10.300 -9.157 -1.181
-14.772 -10.644 -4.399
-14.821 -10.645 -4.443
-14.055 -9.836 -4.248
-14.821 -10.645 -4.443
-8.767 -8.185 -0.587
-12.865 -10.512 -2.397
-10.893 -8.861 -2.126
-12.865 -10.512 -2.397
-12.865 -10.512 -2.397
-13.991 -9.841 -4.180
-14.821 -10.645 -4.443
-8.977 -9.675 0.701
-12.974 -10.516 -2.496
-12.974 -10.516 -2.496
-12.865 -10.512 -2.397
-12.089 -10.389 -1.784
-14.811 -10.652 -4.436
-13.991 -9.841 -4.180
-13.226 -9.692 -4.174
-14.821 -10.640 -4.452
-10.239 -8.477 -1.878
-12.865 -10.512 -2.397
-12.974 -10.516 -2.496
-10.239 -8.477 -1.878
-14.055 -9.836 -4.248
-12.974 -10.516 -2.496
-12.089 -10.389 -1.784
-11.073 -8.534 -2.582
-11.073 -8.534 -2.582
-14.771 -10.644 -4.397
-14.821 -10.645 -4.443
-8.977 -9.675 0.701
-11.073 -8.534 -2.582
-14.054 -9.836 -4.248
-11.176 -8.794 -2.474
-10.569 -9.716 -0.850
-11.073 -8.534 -2.582
-11.176 -8.794 -2.474
-12.089 -10.389 -1.784
-10.302 -8.438 -2.019
-11.176 -8.794 -2.474
-10.569 -9.716 -0.850
-11.056 -9.237 -1.891
-12.865 -10.512 -2.397
-12.089 -10.389 -1.784
-10.239 -8.477 -1.878
-13.942 -9.520 -4.522
-10.819 -8.538 -2.323
-12.865 -10.512 -2.397
-14.821 -10.645 -4.443
-10.569 -9.716 -0.850
-14.821 -10.645 -4.443
-14.759 -10.575 -4.335
-11.073 -8.534 -2.582
-10.239 -8.477 -1.878
-14.821 -10.645 -4.443
-11.073 -8.534 -2.582
-13.942 -9.518 -4.522
-14.054 -9.836 -4.248
-10.819 -8.538 -2.323
-13.819 -9.675 -4.227
-12.089 -10.389 -1.784
-9.786 -6.671 -3.159
-12.053 -10.401 -1.953
-14.772 -10.645 -4.395
-11.073 -8.534 -2.582
-13.991 -9.841 -4.180
-11.073 -8.534 -2.582
-12.865 -10.512 -2.397
-14.771 -10.644 -4.397
-8.101 -9.088 1.002
-14.821 -10.646 -4.442
-14.821 -10.645 -4.443
-10.300 -9.157 -1.181
-13.226 -9.692 -4.174
-12.089 -10.389 -1.784
-11.073 -8.534 -2.582
-11.073 -8.534 -2.582
-14.771 -10.644 -4.397
-14.771 -10.644 -4.397
-11.073 -8.534 -2.582
-14.771 -10.644 -4.397
-10.819 -8.538 -2.323
-13.226 -9.692 -4.174
-9.643 -8.643 -1.018
-11.074 -8.533 -2.583
-13.226 -9.692 -4.174
-10.240 -8.477 -1.879
-11.074 -8.533 -2.583
-14.821 -10.645 -4.443
-10.569 -9.716 -0.850
-13.991 -9.841 -4.180
-8.768 -8.185 -0.587
-10.302 -8.438 -2.020
-11.074 -8.533 -2.583
-10.569 -9.716 -0.850
-9.441 -10.377 0.945
-10.240 -8.477 -1.879
-12.089 -10.389 -1.784
-12.089 -10.389 -1.784
-12.089 -10.389 -1.784
-14.772 -10.644 -4.398
-13.226 -9.692 -4.174
-14.821 -10.645 -4.443
-11.073 -8.534 -2.582
-10.302 -8.438 -2.019
-14.902 -10.642 -4.530
-12.089 -10.389 -1.784
-8.768 -8.185 -0.587
-12.865 -10.512 -2.397
-10.239 -8.477 -1.878
-10.239 -8.477 -1.878
-10.239 -8.477 -1.878
-8.768 -8.184 -0.588
-14.771 -10.644 -4.398
-11.066 -9.196 -1.947
-12.865 -10.512 -2.397
-11.073 -8.534 -2.582
-11.073 -8.534 -2.582
-11.073 -8.534 -2.582
-10.239 -8.477 -1.878
-10.239 -8.477 -1.878
-10.021 -10.176 0.056
-12.089 -10.389 -1.784
-11.073 -8.534 -2.582
-14.902 -10.642 -4.529
-14.821 -10.645 -4.443
-10.239 -8.477 -1.878
-10.239 -8.477 -1.878
-11.073 -8.534 -2.582
-11.073 -8.534 -2.582
-11.075 -8.557 -2.560
-11.073 -8.534 -2.582
-10.302 -8.438 -2.019
-8.315 -7.938 -0.364
-10.925 -8.847 -2.167
-9.764 -6.676 -3.131
-11.042 -8.536 -2.549
-8.760 -8.182 -0.582
-11.042 -8.536 -2.549
-10.820 -8.565 -2.298
-11.074 -8.533 -2.584
-11.074 -8.533 -2.584
-14.902 -10.642 -4.530
-11.074 -8.533 -2.584
-11.074 -8.533 -2.584
-12.089 -10.389 -1.784
-8.315 -7.938 -0.363
-10.301 -9.157 -1.182
-11.074 -8.533 -2.584
-14.016 -9.511 -4.606
-14.902 -10.642 -4.530
-8.769 -8.184 -0.589
-10.891 -8.862 -2.123
-8.315 -7.938 -0.364
-14.902 -10.643 -4.529
-11.177 -8.794 -2.475
-14.899 -10.683 -4.488
-8.765 -8.196 -0.571
-12.648 -9.719 -3.586
-10.018 -10.175 0.058
-14.902 -10.642 -4.529
-8.315 -7.938 -0.363
-10.891 -8.861 -2.124
-8.315 -7.938 -0.363
-14.902 -10.643 -4.523
-10.301 -8.475 -1.938
-8.768 -8.184 -0.588
-8.315 -7.938 -0.363
-8.315 -7.938 -0.363
-10.030 -9.154 -0.919
-8.315 -7.938 -0.363
-9.787 -6.671 -3.160
-8.315 -7.938 -0.363
-11.075 -8.557 -2.560
-8.315 -7.938 -0.363
-8.768 -8.184 -0.588
-8.768 -8.184 -0.588
-10.018 -10.175 0.058
-11.075 -8.557 -2.560
-10.301 -8.475 -1.938
-8.315 -7.938 -0.363
-10.301 -8.475 -1.938
-10.301 -8.475 -1.938
-10.030 -9.154 -0.919
-14.902 -10.642 -4.529
-14.515 -9.895 -4.704
-10.301 -8.475 -1.938
-11.177 -8.794 -2.475
-10.898 -8.859 -2.133
-10.274 -8.409 -2.027
-8.765 -8.196 -0.571
-14.918 -10.332 -4.706
-8.768 -8.184 -0.588
-14.151 -9.946 -4.286
-14.902 -10.641 -4.528
-14.902 -10.643 -4.529
-12.648 -9.719 -3.586
-8.768 -8.184 -0.588
-8.315 -7.938 -0.363
-12.648 -9.719 -3.586
-8.315 -7.938 -0.363
-10.301 -8.475 -1.938
-8.315 -7.938 -0.363
-10.301 -8.475 -1.938
-8.315 -7.938 -0.363
-8.315 -7.938 -0.363
-8.315 -7.938 -0.363
-10.301 -8.475 -1.938
-14.902 -10.643 -4.529
-8.315 -7.938 -0.363
-14.902 -10.642 -4.529
-10.301 -8.475 -1.938
-10.018 -10.175 0.058
-10.018 -10.175 0.058
-8.315 -7.938 -0.363
-8.768 -8.184 -0.588
-8.768 -8.184 -0.588
-8.315 -7.938 -0.363
-8.768 -8.184 -0.588
-8.768 -8.184 -0.588
-8.768 -8.184 -0.588
-10.301 -8.475 -1.938
-10.301 -8.475 -1.938
-10.301 -8.475 -1.938
-10.018 -10.175 0.058
-10.018 -10.175 0.058
-11.075 -8.557 -2.560
-11.075 -8.557 -2.560
-8.315 -7.938 -0.363
-10.301 -8.475 -1.938
-10.301 -8.475 -1.938
-11.075 -8.557 -2.560
-10.301 -8.475 -1.938
-8.264 -7.934 -0.336
-14.898 -10.667 -4.505
-8.768 -8.184 -0.588
-11.075 -8.557 -2.560
-14.902 -10.642 -4.529
-8.315 -7.938 -0.363
-11.075 -8.557 -2.560
-11.075 -8.557 -2.560
-14.902 -10.642 -4.529
-11.075 -8.557 -2.560
-8.315 -7.938 -0.363
-10.301 -8.475 -1.938
-8.315 -7.938 -0.363
-11.075 -8.557 -2.560
-10.301 -8.475 -1.938
-12.648 -9.719 -3.586
-10.891 -8.861 -2.124
-10.301 -8.475 -1.938
-8.693 -7.579 -1.202
-8.693 -7.579 -1.202
-8.957 -7.694 -1.288
-8.693 -7.579 -1.202
-8.957 -7.694 -1.288
-8.957 -7.694 -1.288
-9.787 -6.671 -3.160
-7.681 -6.821 -0.883
-8.693 -7.579 -1.202
-8.957 -7.694 -1.288
-7.741 -6.781 -1.051
-8.957 -7.694 -1.288
-8.957 -7.694 -1.288
-10.251 -7.356 -2.925
-9.787 -6.671 -3.160
-14.918 -10.332 -4.706
-9.787 -6.671 -3.160
-8.957 -7.694 -1.288
-9.787 -6.671 -3.160
-9.787 -6.671 -3.160
-8.957 -7.694 -1.288
-10.251 -7.356 -2.925
-8.731 -7.578 -1.239
-8.694 -7.622 -1.151
-8.593 -7.390 -1.276
-14.921 -10.331 -4.709
-7.689 -6.814 -0.898
-10.253 -7.355 -2.928
-10.253 -7.355 -2.928
-9.789 -6.670 -3.163
-7.741 -6.781 -1.052
-8.964 -7.690 -1.300
-8.964 -7.689 -1.300
-14.921 -10.331 -4.709
-8.593 -7.390 -1.276
-14.921 -10.331 -4.709
-8.704 -7.568 -1.225
-8.964 -7.690 -1.300
-8.704 -7.568 -1.224
-9.789 -6.670 -3.163
-8.704 -7.568 -1.224
-10.253 -7.355 -2.928
-9.789 -6.670 -3.163
-8.964 -7.690 -1.300
-9.789 -6.670 -3.163
-8.704 -7.568 -1.224
-7.689 -6.814 -0.898
-10.302 -8.476 -1.939
-9.789 -6.670 -3.163
-8.964 -7.690 -1.300
-8.755 -7.594 -1.241
-8.706 -7.559 -1.238
-8.965 -7.689 -1.302
-11.373 -8.019 -3.344
-9.806 -6.665 -3.184
-8.966 -7.689 -1.304
-8.770 -8.183 -0.591
-8.966 -7.689 -1.304
-11.118 -8.038 -3.067
-8.966 -7.689 -1.304
-9.806 -6.665 -3.184
-7.755 -6.777 -1.071
-8.966 -7.689 -1.304
-8.770 -8.183 -0.591
-9.806 -6.665 -3.184
-10.978 -9.726 -1.364
-10.282 -7.351 -2.962
-10.021 -10.172 0.052
-7.755 -6.777 -1.071
-8.265 -7.933 -0.339
-10.305 -8.474 -1.944
-10.021 -10.172 0.052
-7.691 -6.813 -0.901
-9.806 -6.665 -3.184
-10.021 -10.172 0.052
-11.118 -8.038 -3.067
-8.315 -7.937 -0.363
-11.080 -8.556 -2.567
-14.891 -10.688 -4.472
-8.966 -7.689 -1.304
-10.305 -8.474 -1.944
-10.282 -7.351 -2.962
-10.305 -8.474 -1.944
-8.302 -7.904 -0.392
-10.305 -8.474 -1.944
-9.596 -7.559 -2.107
-10.025 -10.172 0.048
-11.180 -8.534 -2.688
-8.985 -7.688 -1.323
-11.349 -7.990 -3.364
-8.712 -7.570 -1.230
-8.332 -7.936 -0.382
-8.783 -8.161 -0.627
-8.985 -7.688 -1.324
-14.904 -10.642 -4.531
-9.955 -6.629 -3.372
-8.783 -8.161 -0.627
-10.025 -10.169 0.045
-10.378 -8.458 -2.041
-14.142 -9.741 -4.477
-8.985 -7.688 -1.324
-9.593 -7.579 -2.074
-10.440 -7.322 -3.152
-11.349 -7.990 -3.364
-8.783 -8.161 -0.627
-9.593 -7.579 -2.074
-10.379 -8.457 -2.041
-10.941 -9.336 -1.728
-8.748 -8.188 -0.563
-8.304 -7.939 -0.351
-8.304 -7.941 -0.350
-10.986 -8.049 -2.924
-10.933 -8.566 -2.410
-8.752 -8.186 -0.569
-8.296 -7.984 -0.296
-8.307 -7.940 -0.353
-10.237 -7.359 -2.908
-9.770 -6.674 -3.139
-10.237 -7.359 -2.908
-8.307 -7.940 -0.353
-10.035 -10.211 0.079
-10.277 -8.480 -1.910
-11.132 -8.540 -2.636
-14.021 -9.499 -4.618
-8.696 -7.583 -1.200
-7.686 -6.819 -0.888
-8.392 -8.138 -0.236
-10.391 -7.331 -3.092
-10.195 -9.903 -0.736
-8.762 -8.166 -0.600
-9.566 -7.580 -2.047
-10.347 -8.464 -2.001
-8.290 -7.931 -0.344
-11.703 -8.021 -3.674
-8.975 -7.694 -1.307
-14.026 -9.510 -4.618
-10.419 -7.328 -3.125
-11.426 -8.043 -3.372
-10.350 -8.463 -2.006
-8.272 -7.936 -0.343
-10.039 -10.207 0.071
-11.661 -8.204 -3.446
-8.975 -7.694 -1.307
-10.350 -8.463 -2.006
-8.307 -7.974 -0.318
-8.321 -7.939 -0.368
-11.426 -8.043 -3.372
-8.697 -7.582 -1.202
-8.598 -7.395 -1.275
-7.808 -6.772 -1.130
-10.350 -8.463 -2.006
-10.350 -8.463 -2.006
-9.929 -6.636 -3.339
-6.167 -6.621 0.476
-8.763 -8.165 -0.602
-10.985 -8.821 -2.255
-7.473 -8.064 0.602
-7.473 -8.064 0.602
-8.321 -7.939 -0.368
-10.350 -8.463 -2.006
-9.929 -6.636 -3.339
-9.929 -6.636 -3.339
-7.473 -8.064 0.602
-11.426 -8.043 -3.372
-8.763 -8.165 -0.602
-10.350 -8.463 -2.006
-14.914 -10.639 -4.546
-10.039 -10.207 0.071
-10.590 -9.689 -0.898
-8.321 -7.939 -0.368
-10.350 -8.463 -2.006
-8.321 -7.939 -0.368
-10.350 -8.463 -2.006
-10.350 -8.463 -2.006
-8.321 -7.939 -0.368
-8.695 -7.598 -1.183
-8.697 -7.582 -1.202
-10.350 -8.463 -2.006
-8.975 -7.694 -1.307
-10.986 -9.701 -1.375
-11.333 -7.991 -3.346
-14.025 -9.499 -4.628
-11.661 -8.204 -3.446
-14.914 -10.638 -4.546
-10.039 -10.207 0.071
-10.350 -8.463 -2.006
-7.473 -8.064 0.602
-14.921 -10.271 -4.777
-8.763 -8.165 -0.602
-7.808 -6.772 -1.130
-9.929 -6.636 -3.339
-9.578 -7.579 -2.060
-11.333 -7.991 -3.346
-8.763 -8.165 -0.602
-8.272 -7.936 -0.343
-7.686 -6.818 -0.890
-11.333 -7.991 -3.346
-8.272 -7.936 -0.343
-11.135 -8.539 -2.640
-8.763 -8.165 -0.602
-8.321 -7.939 -0.368
-8.321 -7.940 -0.368
-11.426 -8.043 -3.372
-10.039 -10.207 0.071
-8.321 -7.939 -0.368
-8.763 -8.165 -0.602
-8.321 -7.939 -0.368
-11.135 -8.539 -2.640
-11.814 -7.518 -4.354
-9.781 -6.673 -3.151
-10.288 -8.476 -1.924
-11.054 -8.555 -2.542
-8.306 -7.939 -0.353
-8.753 -8.187 -0.570
-8.956 -7.695 -1.287
-7.458 -8.065 0.618
-8.306 -7.939 -0.353
-8.753 -8.187 -0.570
-8.306 -7.940 -0.352
-10.263 -7.358 -2.934
-11.418 -8.208 -3.199
-9.969 -7.512 -2.456
-8.292 -7.942 -0.337
-10.923 -8.849 -2.162
-8.332 -8.059 -0.256
-7.453 -8.066 0.625
-8.292 -7.942 -0.337
-9.745 -6.684 -3.104
-10.279 -8.479 -1.913
-8.899 -7.565 -1.374
-10.419 -7.328 -3.125
-14.025 -9.503 -4.624
-6.133 -6.545 0.433
-8.321 -7.939 -0.368
-10.351 -8.462 -2.006
-8.975 -7.694 -1.307
-11.136 -8.539 -2.641
-11.333 -7.991 -3.346
-10.351 -8.462 -2.006
-11.426 -8.043 -3.372
-8.763 -8.165 -0.602
-11.333 -7.991 -3.346
-8.975 -7.694 -1.307
-8.321 -7.939 -0.368
-10.351 -8.462 -2.006
-8.321 -7.939 -0.368
-11.136 -8.539 -2.641
-8.975 -7.694 -1.307
-8.320 -7.924 -0.383
-11.333 -7.991 -3.346
-10.149 -7.644 -2.507
-10.351 -8.462 -2.006
-10.985 -8.820 -2.255
-8.975 -7.694 -1.307
-11.136 -8.539 -2.641
-8.899 -7.565 -1.374
-7.473 -8.064 0.602
-7.366 -7.379 -0.024
-10.351 -8.462 -2.006
-8.318 -7.947 -0.356
-11.429 -9.805 -1.659
-8.975 -7.694 -1.307
-8.321 -7.939 -0.369
-10.351 -8.462 -2.006
-8.763 -8.165 -0.602
-8.321 -7.940 -0.368
-9.969 -7.512 -2.456
-11.221 -7.996 -3.231
-11.428 -8.043 -3.374
-10.351 -8.463 -2.006
-10.351 -8.463 -2.006
-10.420 -7.328 -3.126
-11.334 -7.991 -3.348
-10.039 -10.207 0.071
-7.473 -8.064 0.602
-10.039 -10.207 0.071
-11.663 -8.204 -3.447
-8.272 -7.936 -0.343
-10.351 -8.463 -2.006
-8.321 -7.939 -0.368
-10.351 -8.463 -2.006
-10.351 -8.463 -2.006
-8.321 -7.939 -0.368
-8.321 -7.939 -0.368
-11.334 -7.991 -3.348
-8.763 -8.165 -0.602
-9.929 -6.636 -3.340
-8.321 -7.937 -0.370
-10.985 -8.820 -2.256
-8.697 -7.582 -1.202
-8.321 -7.939 -0.368
-8.321 -7.941 -0.367
-8.752 -6.773 -1.974
-14.921 -10.271 -4.777
-8.321 -7.939 -0.368
-11.272 -9.037 -2.283
-11.428 -8.043 -3.374
-14.492 -10.048 -4.507
-8.321 -7.939 -0.368
-8.763 -8.165 -0.602
-7.473 -8.064 0.602
-14.025 -9.513 -4.614
-8.321 -7.939 -0.368
-8.902 -7.563 -1.377
-7.686 -6.818 -0.890
-9.087 -9.283 0.189
-9.579 -7.559 -2.090
-10.350 -8.463 -2.005
-11.660 -8.204 -3.444
-8.321 -7.939 -0.368
-10.146 -7.646 -2.501
-10.419 -7.328 -3.124
-10.039 -10.207 0.071
-10.350 -8.463 -2.005
-7.473 -8.064 0.602
-11.332 -7.992 -3.345
-8.514 -7.559 -0.996
-10.350 -8.463 -2.005
-10.350 -8.463 -2.005
-8.321 -7.939 -0.368
-7.473 -8.064 0.602
-11.425 -8.043 -3.371
-8.897 -7.565 -1.370
-8.763 -8.165 -0.602
-8.321 -7.939 -0.368
-8.321 -7.939 -0.368
-8.975 -7.694 -1.307
-7.473 -8.064 0.602
-8.975 -7.694 -1.307
-10.350 -8.463 -2.006
-11.135 -8.539 -2.639
-8.729 -7.579 -1.236
-10.275 -8.481 -1.905
-8.304 -7.940 -0.350
-10.927 -8.846 -2.169
-10.990 -8.049 -2.929
-7.465 -8.061 0.608
-8.304 -7.940 -0.350
-13.708 -9.209 -4.513
-9.766 -6.675 -3.134
-8.702 -7.569 -1.221
-8.304 -7.940 -0.350
-11.030 -8.562 -2.512
-10.275 -8.481 -1.905
-9.584 -7.521 -2.065
-11.779 -7.520 -4.317
-11.846 -7.535 -4.365
-8.963 -7.691 -1.298
-10.284 -8.478 -1.918
-8.305 -7.940 -0.352
-7.736 -6.783 -1.045
-8.702 -7.570 -1.221
-7.464 -8.061 0.609
-8.963 -7.691 -1.298
-10.996 -8.050 -2.934
-10.284 -8.478 -1.918
-9.960 -7.514 -2.445
-10.972 -8.026 -2.954
-11.124 -8.010 -3.120
-10.348 -8.464 -2.002
-10.393 -7.330 -3.096
-14.026 -9.508 -4.621
-6.131 -6.547 0.437
-11.314 -8.054 -3.249
-11.314 -8.054 -3.249
-8.981 -7.689 -1.318
-10.348 -8.464 -2.002
-8.981 -7.689 -1.318
-10.348 -8.464 -2.002
-11.779 -7.520 -4.317
-7.737 -6.782 -1.046
-7.464 -8.061 0.609
-8.303 -7.974 -0.315
-11.846 -7.535 -4.365
-8.752 -8.188 -0.567
-11.792 -8.145 -3.636
-8.305 -7.940 -0.352
-11.420 -8.208 -3.201
-8.704 -7.569 -1.223
-5.878 -6.794 0.939
-10.288 -8.477 -1.923
-10.288 -8.476 -1.923
-6.930 -7.206 0.298
-8.899 -7.565 -1.372
-11.137 -8.538 -2.642
-7.480 -8.060 0.592
-8.763 -8.165 -0.603
-9.931 -6.635 -3.343
-9.931 -6.635 -3.343
-8.763 -8.165 -0.603
-7.480 -8.060 0.591
-8.321 -7.939 -0.369
-11.336 -7.991 -3.350
-8.708 -7.571 -1.224
-8.321 -7.939 -0.369
-8.274 -7.935 -0.345
-10.039 -10.206 0.069
-7.480 -8.060 0.591
-10.808 -7.579 -3.214
-6.168 -6.621 0.474
-6.814 -7.199 0.407
-8.321 -7.940 -0.368
-7.808 -6.772 -1.131
-6.814 -7.487 0.696
-7.808 -6.772 -1.131
-8.321 -7.939 -0.369
-6.400 -6.713 0.336
-8.899 -7.565 -1.372
-8.321 -7.942 -0.365
-7.480 -8.060 0.591
-7.480 -8.060 0.591
-10.039 -10.206 0.069
-10.421 -7.327 -3.128
-11.429 -8.043 -3.376
-8.321 -7.939 -0.369
-8.982 -7.689 -1.319
-8.763 -8.165 -0.603
-11.336 -7.991 -3.350
-7.480 -8.060 0.592
-11.429 -8.043 -3.376
-10.986 -8.820 -2.257
-6.908 -7.504 0.620
-8.321 -7.939 -0.369
-11.137 -8.538 -2.642
-9.931 -6.635 -3.343
-7.480 -8.060 0.592
-10.352 -8.462 -2.007
-10.352 -8.462 -2.007
-11.137 -8.538 -2.642
-10.352 -8.462 -2.007
-8.172 -7.787 -0.379
-11.336 -7.991 -3.350
-9.580 -7.559 -2.091
-6.050 -6.694 0.667
-8.763 -8.165 -0.602
-8.735 -7.582 -1.239
-6.348 -6.721 0.395
-7.480 -8.060 0.592
-8.982 -7.689 -1.319
-7.480 -8.060 0.592
-11.428 -8.043 -3.374
-11.428 -8.043 -3.374
-7.480 -8.060 0.592
-6.907 -7.505 0.620
-7.480 -8.060 0.592
-6.907 -7.505 0.620
-8.321 -7.939 -0.368
-10.147 -7.646 -2.502
-8.982 -7.689 -1.319
-6.167 -6.622 0.476
-7.480 -8.060 0.592
-7.480 -8.060 0.592
-7.480 -8.060 0.592
-10.351 -8.463 -2.006
-6.907 -7.505 0.620
-8.982 -7.689 -1.319
-11.428 -8.043 -3.374
-6.918 -7.492 0.597
-11.335 -7.991 -3.348
-10.351 -8.463 -2.006
-7.480 -8.060 0.592
-10.351 -8.463 -2.006
-8.321 -7.939 -0.368
-11.428 -8.043 -3.374
-6.907 -7.505 0.620
-10.351 -8.463 -2.006
-10.805 -7.580 -3.210
-11.428 -8.043 -3.374
-6.918 -7.492 0.597
-11.663 -8.204 -3.448
-7.480 -8.060 0.592
-15.037 -12.816 -2.256
-15.037 -12.816 -2.256
-16.438 -13.207 -3.629
-13.425 -12.462 -0.968
-13.402 -12.451 -0.955
-16.249 -13.035 -3.336
-17.033 -12.977 -4.191
-12.753 -11.606 -1.172
-13.402 -12.451 -0.955
-15.031 -12.810 -2.260
-13.402 -12.451 -0.956
-16.438 -13.207 -3.629
-16.255 -13.037 -3.340
-16.767 -14.112 -2.739
-12.933 -12.329 -0.609
-12.885 -10.078 -3.030
-13.401 -12.452 -0.953
-15.016 -12.818 -2.236
-12.753 -11.606 -1.172
-12.753 -11.606 -1.172
-14.976 -12.822 -2.192
-12.753 -11.606 -1.172
-15.030 -12.810 -2.258
-12.168 -10.242 -2.155
-12.783 -12.329 -0.455
-15.018 -12.818 -2.237
-12.753 -11.606 -1.172
-12.932 -12.329 -0.608
-12.753 -11.606 -1.172
-12.753 -11.606 -1.172
-15.082 -12.812 -2.305
-12.754 -11.606 -1.172
-13.402 -12.451 -0.955
-13.402 -12.451 -0.955
-12.753 -11.606 -1.172
-16.238 -13.030 -3.332
-12.511 -11.593 -0.943
-13.402 -12.451 -0.955
-16.834 -13.000 -3.971
-16.268 -13.043 -3.347
-13.401 -12.452 -0.953
-16.253 -13.035 -3.341
-12.883 -10.079 -3.028
-16.833 -13.000 -3.969
-16.268 -13.043 -3.347
-15.031 -12.810 -2.260
-13.402 -12.451 -0.956
-12.753 -11.606 -1.172
-12.783 -12.329 -0.455
-12.503 -11.598 -0.929
-13.402 -12.451 -0.955
-13.402 -12.451 -0.955
-12.512 -11.593 -0.943
-12.512 -11.593 -0.943
-16.438 -13.207 -3.629
-12.887 -10.078 -3.031
-16.833 -13.000 -3.969
-12.753 -11.606 -1.171
-12.932 -12.329 -0.608
-12.753 -11.606 -1.171
-12.511 -11.593 -0.942
-12.753 -11.606 -1.171
-14.299 -12.702 -1.791
-16.140 -13.057 -3.207
-16.438 -13.207 -3.629
-14.299 -12.702 -1.791
-16.925 -13.003 -4.059
-12.753 -11.606 -1.172
-12.168 -10.242 -2.155
-12.932 -12.329 -0.608
-12.885 -10.078 -3.030
-14.974 -12.822 -2.190
-12.277 -10.224 -2.293
-16.438 -13.207 -3.628
-16.834 -13.000 -3.970
-16.834 -13.000 -3.970
-16.438 -13.207 -3.628
-12.753 -11.606 -1.172
-12.753 -11.606 -1.172
-12.503 -11.599 -0.929
-12.859 -10.086 -2.990
-12.753 -11.606 -1.172
-15.082 -12.812 -2.305
-16.438 -13.207 -3.629
-12.529 -11.618 -0.936
-12.529 -11.619 -0.936
-12.289 -10.210 -2.324
-16.241 -13.046 -3.314
-15.081 -12.811 -2.305
-16.064 -13.248 -3.191
-13.463 -12.429 -1.035
-14.290 -12.693 -1.800
-13.414 -12.440 -0.979
-12.530 -11.619 -0.936
-12.530 -11.619 -0.936
-12.788 -12.316 -0.472
-12.530 -11.618 -0.937
-13.461 -12.429 -1.033
-16.136 -13.069 -3.187
-16.064 -13.248 -3.191
-12.312 -10.211 -2.346
-16.185 -13.239 -3.331
-12.894 -10.075 -3.039
-14.288 -12.693 -1.798
-12.765 -12.321 -0.445
-15.039 -12.816 -2.258
-12.788 -12.316 -0.472
-12.529 -11.618 -0.937
-12.892 -10.075 -3.037
-14.288 -12.693 -1.798
-12.538 -11.613 -0.951
-12.538 -11.613 -0.951
-13.414 -12.441 -0.978
-12.529 -11.619 -0.936
-15.080 -12.811 -2.303
-15.080 -12.811 -2.303
-15.039 -12.816 -2.258
-16.180 -13.240 -3.326
-12.529 -11.619 -0.936
-16.180 -13.240 -3.325
-12.529 -11.619 -0.936
-12.310 -10.211 -2.341
-16.180 -13.240 -3.325
-16.027 -13.252 -3.146
-12.529 -11.618 -0.937
-16.180 -13.240 -3.325
-14.288 -12.693 -1.798
-12.530 -11.618 -0.937
-9.934 -10.135 0.182
-16.176 -13.241 -3.321
-12.310 -10.212 -2.341
-13.459 -12.429 -1.031
-14.363 -12.689 -1.882
-15.083 -12.810 -2.307
-16.326 -13.090 -3.354
-12.312 -10.210 -2.347
-15.005 -12.787 -2.249
-12.538 -11.613 -0.951
-16.064 -13.248 -3.191
-14.290 -12.693 -1.800
-16.764 -14.120 -2.730
-16.175 -13.241 -3.319
-9.934 -10.135 0.182
-12.537 -11.614 -0.949
-15.080 -12.811 -2.304
-13.473 -12.431 -1.044
-12.892 -10.075 -3.037
-16.242 -13.048 -3.313
-12.530 -11.618 -0.937
-16.027 -13.252 -3.147
-16.368 -13.093 -3.393
-16.326 -13.090 -3.354
-12.538 -11.613 -0.951
-16.367 -13.093 -3.391
-16.326 -13.090 -3.354
-13.414 -12.440 -0.979
-14.290 -12.693 -1.800
-16.184 -13.239 -3.330
-15.040 -12.815 -2.260
-16.181 -13.240 -3.326
-12.788 -12.316 -0.473
-15.040 -12.815 -2.260
-14.290 -12.693 -1.800
-15.083 -12.810 -2.306
-12.892 -10.075 -3.037
-15.006 -12.787 -2.250
-16.326 -13.090 -3.354
-14.363 -12.689 -1.882
-12.530 -11.619 -0.936
-9.611 -8.515 -1.085
-12.539 -11.614 -0.951
-12.767 -12.321 -0.446
-16.077 -13.063 -3.135
-12.540 -11.613 -0.952
-16.443 -13.207 -3.635
-16.839 -12.999 -3.976
-14.941 -12.791 -2.184
-15.018 -12.816 -2.239
-12.756 -11.606 -1.175
-16.377 -13.083 -3.415
-12.872 -10.082 -3.009
-16.185 -13.249 -3.325
-16.839 -12.999 -3.976
-16.380 -13.083 -3.419
-14.975 -12.821 -2.191
-16.033 -13.264 -3.146
-12.287 -10.221 -2.307
-12.512 -11.590 -0.947
-16.382 -13.082 -3.421
-12.512 -11.590 -0.947
-12.503 -11.596 -0.932
-14.336 -12.702 -1.843
-12.512 -11.590 -0.947
-16.190 -13.251 -3.330
-16.034 -13.263 -3.147
-12.512 -11.590 -0.947
-14.976 -12.821 -2.193
-12.503 -11.595 -0.932
-12.289 -10.220 -2.312
-16.070 -13.259 -3.191
-16.261 -13.035 -3.349
-13.404 -12.451 -0.957
-14.941 -12.793 -2.183
-16.431 -13.081 -3.472
-12.869 -10.083 -3.005
-11.876 -11.617 -0.280
-13.403 -12.452 -0.956
-13.403 -12.452 -0.956
-16.187 -13.251 -3.327
-16.443 -13.207 -3.635
-13.404 -12.451 -0.957
-14.262 -12.706 -1.760
-12.314 -10.212 -2.350
-12.762 -12.334 -0.428
-14.944 -12.794 -2.185
-12.867 -10.090 -2.982
-16.387 -13.082 -3.427
-12.513 -11.591 -0.946
-12.756 -11.606 -1.175
-12.514 -11.593 -0.946
-14.988 -12.820 -2.205
-12.077 -11.622 -0.474
-15.030 -12.815 -2.252
-12.506 -11.598 -0.933
-15.030 -12.815 -2.252
-12.881 -10.079 -3.023
-13.408 -12.449 -0.963
-13.469 -12.440 -1.030
-12.909 -10.071 -3.065
-14.988 -12.820 -2.205
-13.468 -12.440 -1.030
-13.408 -12.449 -0.963
-12.298 -10.217 -2.324
-14.349 -12.701 -1.857
-16.436 -13.080 -3.478
-14.954 -12.790 -2.199
-14.276 -12.705 -1.774
-12.786 -12.329 -0.458
-12.506 -11.598 -0.932
-13.369 -12.419 -0.949
-16.445 -13.206 -3.637
-13.456 -12.438 -1.019
-12.513 -11.591 -0.947
-13.408 -12.449 -0.963
-13.408 -12.449 -0.963
-14.986 -12.820 -2.204
-12.513 -11.591 -0.947
-12.299 -10.217 -2.327
-11.166 -9.664 -1.631
-12.786 -12.329 -0.457
-12.299 -10.217 -2.327
-16.438 -13.081 -3.479
-14.986 -12.820 -2.204
-14.275 -12.705 -1.773
-16.446 -13.206 -3.638
-12.299 -10.217 -2.328
-14.986 -12.820 -2.204
-12.505 -11.596 -0.933
-16.035 -13.263 -3.149
-14.275 -12.705 -1.773
-16.848 -12.997 -3.987
-16.389 -13.081 -3.429
-16.190 -13.251 -3.330
-13.407 -12.450 -0.962
-16.071 -13.259 -3.192
-16.847 -12.997 -3.986
-16.445 -13.206 -3.638
-16.445 -13.206 -3.638
-16.389 -13.081 -3.430
-12.285 -10.202 -2.329
-11.878 -11.617 -0.282
-14.275 -12.705 -1.773
-13.408 -12.449 -0.963
-12.505 -11.596 -0.933
-14.986 -12.820 -2.204
-12.299 -10.217 -2.327
-11.887 -11.616 -0.291
-14.986 -12.820 -2.204
-16.445 -13.206 -3.638
-12.787 -12.330 -0.458
-12.765 -12.334 -0.432
-14.986 -12.820 -2.204
-16.189 -13.250 -3.329
-12.765 -12.334 -0.432
-12.505 -11.596 -0.933
-15.044 -12.811 -2.271
-16.437 -13.081 -3.479
-13.408 -12.449 -0.963
-14.275 -12.705 -1.773
-12.514 -11.590 -0.948
-12.505 -11.596 -0.934
-12.513 -11.591 -0.947
-14.845 -12.803 -2.078
-16.445 -13.206 -3.638
-16.110 -13.058 -3.175
-13.408 -12.449 -0.963
-12.960 -10.069 -3.120
-12.504 -11.597 -0.932
-9.934 -10.140 0.187
-14.984 -12.820 -2.202
-14.273 -12.706 -1.771
-13.456 -12.438 -1.019
-12.881 -10.079 -3.022
-13.407 -12.450 -0.962
-15.042 -12.812 -2.269
-16.436 -13.081 -3.477
-12.504 -11.597 -0.932
-16.436 -13.081 -3.477
-11.819 -11.662 -0.179
-12.529 -11.618 -0.936
-13.247 -12.399 -0.848
-13.375 -12.411 -0.963
-12.538 -11.614 -0.950
-16.064 -13.248 -3.191
-16.064 -13.248 -3.191
-16.185 -13.239 -3.331
-13.476 -12.431 -1.047
-12.324 -10.188 -2.386
-12.765 -12.321 -0.445
-12.530 -11.618 -0.937
-13.414 -12.440 -0.979
-12.765 -12.321 -0.445