-11.473 -10.440 -1.031
-11.492 -10.454 -1.036
-10.352 -11.129 0.779
-11.471 -10.450 -1.019
-10.715 -11.870 1.153
-10.715 -11.870 1.153
-11.481 -10.441 -1.038
-10.268 -11.944 1.675
-11.492 -10.454 -1.036
-17.733 -11.510 -6.238
-10.121 -11.182 1.064
-17.248 -10.388 -6.874
-17.112 -10.231 -6.916
-17.112 -10.231 -6.916
-17.186 -10.411 -6.789
-11.722 -10.416 -1.303
-11.482 -10.431 -1.049
-10.341 -11.830 1.490
-11.482 -10.431 -1.048
-10.075 -11.175 1.102
-11.473 -10.439 -1.032
-17.737 -11.511 -6.241
-10.152 -11.162 1.012
-10.120 -11.179 1.062
-15.684 -10.037 -5.676
-10.033 -11.175 1.145
-10.309 -11.800 1.492
-17.120 -10.231 -6.924
-11.621 -10.474 -1.145
-17.736 -11.511 -6.241
-10.906 -10.473 -0.432
-10.089 -11.187 1.101
-15.681 -10.038 -5.672
-17.120 -10.231 -6.925
-11.463 -10.434 -1.027
-10.881 -10.475 -0.403
-11.463 -10.434 -1.026
-11.474 -10.445 -1.026
-10.125 -11.817 1.693
-17.120 -10.231 -6.925
-11.474 -10.445 -1.026
-11.474 -10.445 -1.026
-17.185 -10.409 -6.789
-10.900 -10.473 -0.425
-10.340 -11.830 1.491
-10.074 -11.175 1.103
-11.481 -10.432 -1.048
-10.340 -11.830 1.490
-10.109 -11.158 1.052
-17.596 -11.516 -6.094
-10.319 -11.867 1.549
-10.155 -11.161 1.009
-10.122 -11.178 1.059
-10.155 -11.161 1.009
-10.155 -11.161 1.009
-10.898 -10.471 -0.425
-11.489 -10.431 -1.056
-11.500 -10.442 -1.055
-17.185 -10.409 -6.789
-11.474 -10.439 -1.033
-10.340 -11.830 1.491
-11.482 -10.432 -1.048
-10.312 -11.899 1.587
-17.769 -11.506 -6.278
-11.498 -10.442 -1.054
-10.127 -11.174 1.050
-17.212 -10.400 -6.826
-10.214 -11.889 1.677
-10.085 -11.169 1.087
-10.351 -11.824 1.473
-10.898 -10.473 -0.424
-10.898 -10.473 -0.424
-10.083 -11.170 1.090
-10.361 -11.808 1.448
-10.084 -11.170 1.089
-11.471 -10.438 -1.031
-10.351 -11.824 1.474
-17.627 -11.512 -6.130
-11.499 -10.442 -1.055
-10.129 -11.174 1.048
-10.905 -10.473 -0.431
-10.905 -10.473 -0.431
-11.499 -10.442 -1.055
-10.429 -11.837 1.409
-11.488 -10.431 -1.055
-10.128 -11.175 1.049
-11.487 -10.431 -1.054
-10.300 -11.897 1.596
-10.429 -11.837 1.408
-10.162 -11.157 0.998
-15.713 -10.030 -5.712
-10.105 -11.150 1.047
-10.072 -11.165 1.096
-10.072 -11.165 1.096
-10.898 -10.473 -0.423
-17.769 -11.506 -6.278
-11.498 -10.442 -1.054
-10.426 -11.836 1.411
-9.862 -11.630 1.770
-10.436 -11.822 1.387
-10.128 -11.174 1.048
-10.897 -10.471 -0.424
-11.479 -10.438 -1.038
-10.161 -11.157 0.999
-10.128 -11.173 1.048
-10.286 -11.898 1.613
-17.501 -11.526 -5.990
-10.434 -11.837 1.403
-10.133 -11.174 1.044
-17.346 -10.174 -7.208
-9.983 -11.129 1.149
-10.135 -11.811 1.678
-10.872 -10.473 -0.396
-10.872 -10.473 -0.396
-10.872 -10.473 -0.396
-10.872 -10.473 -0.396
-17.211 -10.400 -6.825
-10.351 -11.824 1.474
-11.492 -10.442 -1.048
-10.084 -11.170 1.089
-9.379 -11.657 2.281
-10.879 -10.469 -0.408
-15.444 -10.061 -5.411
-10.240 -11.910 1.671
-10.075 -11.165 1.092
-10.075 -11.165 1.092
-10.891 -10.471 -0.418
-10.226 -11.911 1.686
-10.109 -11.150 1.044
-11.620 -10.473 -1.144
-10.359 -11.144 0.787
-10.359 -11.144 0.787
-10.315 -11.940 1.623
-10.359 -11.144 0.787
-9.310 -11.566 2.258
-10.330 -11.168 0.840
-10.908 -10.469 -0.437
-17.768 -11.506 -6.277
-11.498 -10.442 -1.054
-10.147 -11.936 1.790
-17.769 -11.506 -6.278
-10.905 -10.473 -0.431
-10.905 -10.473 -0.431
-10.127 -11.174 1.050
-10.905 -10.473 -0.431
-10.425 -11.836 1.411
-10.126 -11.175 1.051
-10.425 -11.836 1.411
-10.285 -11.898 1.613
-10.425 -11.836 1.411
-11.498 -10.442 -1.054
-10.306 -10.536 0.232
-10.425 -11.836 1.411
-10.905 -10.473 -0.430
-10.160 -11.157 1.000
-10.436 -11.823 1.387
-10.128 -11.174 1.049
-10.426 -11.836 1.410
-9.904 -11.216 1.315
-10.128 -11.174 1.049
-9.862 -11.630 1.770
-9.664 -11.144 1.482
-10.161 -11.157 0.998
-10.287 -10.531 0.246
-9.970 -11.674 1.704
-10.085 -10.694 0.612
-10.437 -11.822 1.386
-10.161 -11.157 0.998
-10.896 -10.471 -0.424
-10.876 -10.467 -0.407
-10.097 -11.181 1.087
-10.127 -11.174 1.050
-10.426 -11.836 1.411
-10.426 -11.836 1.411
-10.876 -10.467 -0.407
-10.359 -11.856 1.497
-9.357 -11.641 2.286
-10.426 -11.836 1.411
-10.285 -11.898 1.613
-10.897 -10.471 -0.424
-10.876 -10.466 -0.408
-10.297 -10.535 0.240
-10.162 -11.157 0.998
-10.437 -11.822 1.387
-10.099 -11.181 1.084
-10.099 -11.180 1.084
-11.487 -10.431 -1.054
-10.127 -11.174 1.050
-10.161 -11.157 0.999
-11.487 -10.431 -1.054
-10.161 -11.157 0.999
-10.128 -11.174 1.048
-10.246 -11.895 1.650
-10.042 -10.688 0.650
-10.360 -11.855 1.495
-10.128 -11.173 1.048
-10.360 -11.855 1.496
-10.149 -11.934 1.786
-10.248 -11.894 1.647
-11.479 -10.438 -1.038
-10.161 -11.157 0.999
-10.128 -11.174 1.048
-10.128 -11.173 1.048
-15.713 -10.030 -5.712
-10.042 -11.171 1.132
-10.331 -11.774 1.444
-10.071 -11.165 1.097
-11.718 -10.416 -1.300
-10.276 -10.532 0.258
-10.276 -10.532 0.258
-10.298 -10.537 0.240
-10.070 -11.166 1.099
-10.070 -11.166 1.099
-10.070 -11.166 1.099
-10.298 -10.537 0.240
-10.298 -10.537 0.240
-10.209 -11.890 1.683
-10.876 -10.469 -0.406
-10.897 -10.473 -0.422
-10.070 -11.166 1.099
-10.105 -11.150 1.048
-10.897 -10.473 -0.422
-10.876 -10.469 -0.406
-10.206 -11.800 1.594
-10.070 -11.166 1.098
-10.105 -11.150 1.048
-10.288 -10.533 0.246
-10.320 -11.794 1.475
-10.071 -11.165 1.098
-10.897 -10.473 -0.422
-10.299 -10.537 0.240
-10.209 -11.890 1.683
-10.299 -11.934 1.633
-10.372 -11.900 1.527
-10.002 -11.526 1.522
-10.304 -11.167 0.865
-9.935 -11.533 1.596
-10.673 -11.870 1.196
-10.380 -11.901 1.520
-9.353 -11.576 2.224
-10.566 -11.874 1.305
-10.566 -11.874 1.305
-11.134 -10.428 -0.705
-10.735 -11.857 1.120
-10.306 -11.936 1.629
-10.671 -11.868 1.196
-10.325 -11.141 0.818
-10.875 -10.463 -0.411
-10.671 -11.868 1.196
-10.295 -11.902 1.607
-10.855 -10.458 -0.395
-10.267 -10.530 0.264
-11.517 -10.441 -1.074
-9.944 -11.534 1.587
-10.925 -10.473 -0.450
-10.289 -11.171 0.884
-9.350 -11.572 2.224
-10.622 -11.857 1.233
-9.944 -11.534 1.588
-9.963 -11.529 1.563
-10.504 -11.880 1.374
-10.504 -11.880 1.374
-10.925 -10.473 -0.450
-10.279 -11.942 1.661
-10.373 -11.906 1.532
-10.622 -11.857 1.233
-10.262 -11.184 0.924
-10.670 -11.868 1.197
-10.318 -10.533 0.217
-10.290 -11.170 0.883
-10.284 -11.910 1.625
-10.611 -11.863 1.250
-10.296 -10.529 0.234
-10.620 -11.858 1.236
-10.504 -11.880 1.374
-10.322 -11.932 1.609
-10.290 -11.170 0.881
-10.373 -11.906 1.531
-10.290 -11.170 0.881
-10.734 -11.857 1.121
-10.320 -11.146 0.828
-10.670 -11.868 1.197
-10.904 -10.469 -0.433
-10.670 -11.869 1.197
-9.323 -11.575 2.253
-10.328 -10.537 0.210
-10.904 -10.469 -0.434
-10.724 -11.863 1.137
-9.944 -11.534 1.587
-10.559 -11.873 1.311
-10.307 -10.533 0.227
-10.328 -10.537 0.210
-11.746 -10.415 -1.329
-10.374 -11.906 1.531
-10.295 -10.528 0.235
-10.613 -11.862 1.247
-10.622 -11.857 1.233
-10.296 -10.529 0.234
-9.944 -11.534 1.587
-10.559 -11.873 1.311
-9.944 -11.534 1.587
-10.734 -11.857 1.121
-10.903 -10.469 -0.433
-10.559 -11.873 1.311
-10.327 -10.543 0.218
-9.944 -11.534 1.587
-10.734 -11.857 1.121
-10.734 -11.857 1.122
-10.508 -11.880 1.370
-10.327 -10.537 0.212
-10.327 -10.537 0.212
-10.327 -10.537 0.212
-10.327 -10.537 0.212
-11.746 -10.415 -1.329
-10.734 -11.857 1.122
-10.326 -10.537 0.212
-10.305 -10.533 0.229
-10.734 -11.857 1.122
-10.734 -11.857 1.122
-10.613 -11.863 1.248
-10.622 -11.857 1.233
-10.304 -11.938 1.632
-10.290 -11.170 0.882
-10.670 -11.868 1.197
-10.316 -10.533 0.218
-10.289 -11.170 0.883
-10.289 -11.170 0.883
-10.303 -11.939 1.634
-10.295 -10.529 0.235
-10.725 -11.863 1.137
-10.285 -11.909 1.623
-10.903 -10.469 -0.433
-10.233 -11.937 1.703
-10.261 -11.185 0.925
-9.302 -11.576 2.275
-10.904 -10.468 -0.433
-10.904 -10.468 -0.433
-10.374 -11.905 1.531
-10.295 -10.529 0.235
-10.295 -10.528 0.235
-9.362 -11.574 2.213
-9.322 -11.575 2.254
-10.573 -11.872 1.297
-10.622 -11.857 1.234
-10.296 -10.529 0.235
-10.296 -10.529 0.235
-10.322 -11.932 1.609
-10.903 -10.468 -0.433
-10.306 -10.533 0.228
-10.622 -11.857 1.233
-10.776 -11.877 1.100
-8.141 -8.083 -0.064
-10.315 -10.534 0.220
-10.661 -11.874 1.211
-10.902 -10.469 -0.431
-9.715 -11.116 1.403
-10.902 -10.469 -0.431
-10.775 -11.877 1.100
-8.141 -8.083 -0.064
-10.614 -11.863 1.247
-10.304 -10.533 0.231
-10.304 -10.533 0.231
-10.287 -11.172 0.887
-10.325 -10.538 0.214
-10.296 -11.166 0.872
-10.302 -11.939 1.636
-10.284 -11.910 1.626
-10.776 -11.877 1.100
-10.614 -11.862 1.247
-10.304 -11.938 1.632
-10.316 -10.533 0.218
-10.285 -11.909 1.624
-10.299 -11.164 0.867
-10.620 -11.858 1.236
-10.262 -11.184 0.924
-10.290 -11.170 0.881
-9.963 -11.529 1.563
-10.290 -11.170 0.881
-10.305 -11.938 1.632
-10.560 -11.873 1.311
-10.317 -10.533 0.218
-10.776 -11.877 1.100
-10.572 -11.873 1.298
-10.305 -11.945 1.639
-10.290 -11.170 0.883
-10.311 -11.220 0.911
-9.301 -11.575 2.275
-10.775 -11.877 1.100
-10.903 -10.469 -0.433
-10.303 -11.939 1.635
-10.613 -11.863 1.248
-10.285 -11.909 1.623
-10.316 -10.533 0.218
-10.373 -11.906 1.532
-10.903 -10.469 -0.433
-10.327 -10.537 0.212
-10.285 -11.909 1.623
-10.316 -10.533 0.218
-10.295 -10.529 0.235
-10.285 -11.909 1.623
-10.903 -10.469 -0.433
-10.613 -11.863 1.248
-10.724 -11.863 1.137
-10.903 -10.469 -0.433
-10.775 -11.877 1.101
-10.903 -10.469 -0.433
-10.572 -11.873 1.298
-10.517 -11.880 1.361
-10.289 -11.171 0.884
-10.280 -11.942 1.661
-10.306 -10.533 0.228
-10.327 -10.537 0.212
-10.903 -10.468 -0.433
-10.289 -11.171 0.884
-10.327 -10.537 0.212
-9.963 -11.529 1.563
-11.746 -10.415 -1.329
-10.306 -10.533 0.228
-10.289 -11.171 0.884
-10.559 -11.873 1.311
-10.289 -11.171 0.884
-10.289 -11.171 0.884
-10.284 -11.910 1.625
-10.573 -11.872 1.297
-10.295 -10.528 0.235
-10.295 -10.529 0.235
-10.613 -11.863 1.248
-10.903 -10.468 -0.433
-10.903 -10.468 -0.433
-10.306 -10.533 0.228
-10.289 -11.171 0.884
-10.012 -11.527 1.513
-10.289 -11.171 0.884
-10.724 -11.863 1.137
-9.324 -11.575 2.253
-10.734 -11.857 1.122
-10.306 -10.533 0.229
-10.306 -10.533 0.229
-9.302 -11.576 2.275
-10.724 -11.863 1.137
-10.559 -11.873 1.311
-10.298 -11.165 0.868
-10.298 -11.165 0.868
-10.611 -11.864 1.251
-9.350 -11.572 2.224
-10.298 -11.165 0.868
-10.560 -11.873 1.311
-10.280 -11.941 1.660
-10.904 -10.468 -0.433
-10.904 -10.468 -0.433
-10.306 -10.533 0.228
-10.306 -10.533 0.228
-9.717 -11.115 1.400
-10.303 -11.939 1.635
-9.963 -11.529 1.563
-10.613 -11.863 1.248
-10.327 -10.537 0.212
-10.303 -11.939 1.635
-10.559 -11.873 1.311
-10.622 -11.857 1.233
-10.296 -10.529 0.234
-10.613 -11.863 1.248
-10.290 -11.170 0.881
-10.776 -11.877 1.100
-10.332 -11.939 1.606
-10.332 -11.939 1.605
-11.134 -10.427 -0.706
-10.289 -11.169 0.881
-10.268 -10.530 0.263
-10.268 -10.530 0.263
-10.300 -11.162 0.864
-10.300 -11.162 0.864
-10.708 -11.889 1.179
-10.289 -11.168 0.881
-10.289 -11.168 0.881
-10.325 -11.929 1.602
-10.610 -11.863 1.251
-10.708 -11.889 1.179
-10.289 -11.168 0.881
-10.246 -10.525 0.280
-10.246 -10.525 0.280
-10.292 -11.902 1.609
-10.292 -11.902 1.609
-10.340 -11.194 0.856
-10.234 -10.520 0.287
-10.339 -11.195 0.858
-10.854 -10.457 -0.395
-10.667 -11.869 1.200
-10.656 -11.875 1.216
-10.004 -11.530 1.524
-10.245 -10.524 0.280
-10.245 -10.524 0.280
-10.289 -11.168 0.881
-10.267 -10.529 0.264
-10.289 -11.169 0.881
-10.244 -10.524 0.281
-10.608 -11.864 1.254
-10.339 -11.195 0.858
-10.244 -10.524 0.281
-10.854 -10.457 -0.395
-10.244 -10.524 0.281
-10.267 -10.529 0.264
-10.610 -11.863 1.251
-10.656 -11.875 1.216
-10.290 -11.168 0.880
-10.244 -10.524 0.281
-10.244 -10.524 0.281
-10.608 -11.864 1.254
-10.290 -11.168 0.880
-10.290 -11.168 0.880
-10.735 -11.857 1.120
-10.267 -10.530 0.264
-10.331 -11.941 1.609
-10.725 -11.863 1.136
-10.614 -11.862 1.246
-10.011 -11.527 1.514
-10.011 -11.527 1.514
-10.327 -11.929 1.601
-10.614 -11.862 1.247
-11.507 -10.430 -1.075
-10.305 -10.532 0.228
-10.775 -11.877 1.100
-10.305 -10.532 0.228
-9.725 -11.118 1.395
-10.305 -11.946 1.640
-10.311 -11.221 0.912
-10.724 -11.863 1.137
-10.724 -11.863 1.137
-10.305 -10.532 0.228
-10.305 -10.532 0.228
-10.613 -11.863 1.248
-10.305 -10.532 0.228
-9.287 -11.573 2.287
-10.280 -11.942 1.661
-9.963 -11.529 1.563
-9.323 -11.575 2.253
-10.734 -11.857 1.121
-10.724 -11.863 1.137
-10.289 -11.170 0.883
-10.572 -11.873 1.298
-10.613 -11.863 1.248
-10.904 -10.469 -0.433
-10.670 -11.869 1.197
-10.613 -11.863 1.248
-10.307 -10.533 0.227
-10.298 -11.165 0.869
-10.321 -11.933 1.611
-10.373 -11.906 1.532
-10.312 -11.219 0.909
-10.560 -11.873 1.311
-10.904 -10.469 -0.434
-10.289 -11.171 0.884
-10.659 -11.874 1.213
-10.307 -10.533 0.227
-10.328 -10.537 0.210
-10.261 -11.185 0.926
-10.306 -10.533 0.228
-10.328 -10.537 0.210
-10.613 -11.863 1.248
-10.559 -11.873 1.311
-10.289 -11.170 0.883
-9.944 -11.534 1.587
-10.560 -11.873 1.311
-10.289 -11.170 0.883
-10.724 -11.863 1.137
-10.289 -11.171 0.884
-10.289 -11.171 0.884
-10.298 -11.165 0.869
-10.306 -10.533 0.228
-10.298 -11.165 0.869
-10.306 -10.533 0.228
-10.775 -11.877 1.101
-9.302 -11.576 2.275
-10.613 -11.863 1.248
-9.913 -10.622 0.709
-10.622 -11.857 1.233
-10.560 -11.873 1.311
-10.904 -10.469 -0.434
-10.307 -10.533 0.227
-10.307 -10.533 0.227
-9.944 -11.534 1.587
-10.613 -11.863 1.248
-10.613 -11.863 1.248
-10.622 -11.857 1.233
-10.322 -11.932 1.609
-10.322 -11.932 1.609
-10.297 -10.529 0.233
-10.318 -10.533 0.217
-9.301 -11.575 2.275
-9.301 -11.575 2.275
-10.559 -11.873 1.311
-10.305 -11.946 1.639
-10.297 -10.529 0.233
-10.613 -11.863 1.248
-10.290 -11.170 0.882
-10.776 -11.877 1.100
-10.660 -11.874 1.212
-10.614 -11.863 1.247
-10.572 -11.872 1.298
-10.613 -11.863 1.248
-10.297 -10.529 0.234
-10.297 -10.529 0.234
-10.299 -11.164 0.868
-10.601 -11.869 1.266
-10.903 -10.469 -0.433
-10.611 -11.864 1.251
-10.321 -11.933 1.611
-10.011 -11.527 1.513
-10.298 -11.165 0.868
-10.611 -11.864 1.251
-10.611 -11.864 1.251
-10.611 -11.864 1.251
-10.289 -11.170 0.883
-10.328 -10.537 0.210
-10.504 -11.880 1.374
-10.613 -11.863 1.248
-10.613 -11.863 1.249
-10.724 -11.863 1.137
-10.280 -11.941 1.660
-10.573 -11.872 1.297
-10.660 -11.874 1.213
-10.613 -11.863 1.248
-9.288 -11.573 2.287
-10.669 -11.869 1.197
-10.307 -10.533 0.227
-10.775 -11.878 1.101
-10.572 -11.873 1.298
-9.909 -10.616 0.708
-10.288 -11.171 0.885
-10.611 -11.864 1.251
-10.611 -11.864 1.251
-10.289 -11.171 0.883
-10.572 -11.873 1.298
-10.289 -11.171 0.884
-10.306 -10.533 0.228
-9.302 -11.576 2.275
-10.233 -11.937 1.703
-10.613 -11.863 1.248
-10.298 -11.165 0.868
-10.611 -11.864 1.251
-10.660 -11.874 1.213
-10.307 -10.533 0.227
-10.734 -11.857 1.122
-10.328 -10.543 0.216
-10.603 -11.869 1.264
-9.931 -10.623 0.693
-10.307 -10.533 0.227
-10.572 -11.872 1.297
-10.289 -11.171 0.884
-10.279 -11.942 1.661
-10.904 -10.469 -0.434
-10.613 -11.863 1.248
-10.289 -11.170 0.883
-10.311 -11.220 0.911
-10.305 -11.946 1.639
-10.311 -11.220 0.911
-9.944 -11.534 1.587
-10.307 -10.533 0.227
-10.289 -11.171 0.884
-9.931 -10.623 0.693
-10.613 -11.863 1.248
-10.559 -11.873 1.311
-10.289 -11.170 0.883
-9.944 -11.534 1.587
-10.724 -11.863 1.137
-9.944 -11.534 1.587
-10.669 -11.869 1.197
-10.307 -10.533 0.227
-10.559 -11.873 1.311
-10.734 -11.857 1.122
-10.613 -11.863 1.248
-10.572 -11.873 1.298
-10.328 -10.543 0.216
-10.307 -10.533 0.227
-10.659 -11.874 1.213
-10.289 -11.171 0.884
-10.724 -11.863 1.137
-10.307 -10.533 0.227
-10.613 -11.863 1.248
-10.613 -11.863 1.248
-10.660 -11.874 1.213
-10.289 -11.171 0.883
-10.724 -11.863 1.137
-10.289 -11.171 0.883
-10.289 -11.171 0.884
-10.306 -10.533 0.228
-10.328 -10.537 0.211
-10.660 -11.874 1.213
-10.613 -11.863 1.248
-10.613 -11.863 1.248
-10.303 -11.939 1.634
-9.937 -11.538 1.598
-10.613 -11.863 1.248
-10.613 -11.863 1.248
-10.613 -11.863 1.248
-9.714 -11.116 1.404
-10.288 -11.178 0.892
-10.288 -11.178 0.892
-9.596 -11.107 1.514
-10.288 -11.178 0.892
-10.589 -11.867 1.277
-10.600 -11.867 1.265
-10.600 -11.867 1.265
-10.491 -11.887 1.394
-10.286 -11.171 0.887
-10.600 -11.867 1.265
-10.286 -11.171 0.887
-10.286 -11.171 0.887
-10.648 -11.878 1.228
-10.602 -11.866 1.262
-10.337 -11.935 1.596
-10.312 -11.930 1.617
-10.295 -11.164 0.871
-10.295 -11.164 0.871
-9.285 -11.569 2.286
-10.659 -11.873 1.213
-10.295 -11.164 0.871
-9.935 -11.536 1.599
-10.602 -11.867 1.264
-10.613 -11.861 1.247
-10.245 -11.927 1.681
-10.295 -11.164 0.871
-10.611 -11.862 1.250
-10.659 -11.873 1.213
-10.613 -11.861 1.247
-10.181 -10.500 0.321
-10.311 -11.931 1.618
-9.788 -10.607 0.819
-10.180 -10.500 0.321
-7.406 -7.328 -0.076
-6.869 -6.866 -0.003
-7.406 -7.328 -0.076
-7.294 -7.045 -0.250
-7.406 -7.328 -0.076
-7.406 -7.328 -0.076
-7.406 -7.328 -0.076
-7.406 -7.328 -0.076
-6.869 -6.866 -0.003
-7.406 -7.328 -0.076
-6.869 -6.866 -0.003
-6.869 -6.866 -0.003
-6.869 -6.866 -0.003
-7.595 -7.008 -0.583
-9.539 -7.624 -1.921
-7.406 -7.328 -0.076
-11.834 -6.603 -5.256
-7.392 -7.348 -0.042
-7.566 -7.026 -0.537
-6.690 -6.879 0.191
-7.596 -7.007 -0.586
-8.479 -6.679 -1.812
-8.479 -6.679 -1.812
-6.544 -7.134 0.590
-11.357 -6.753 -4.625
-9.280 -7.669 -1.617
-7.295 -7.043 -0.252
-9.280 -7.669 -1.617
-7.496 -7.019 -0.474
-7.496 -7.019 -0.474
-7.595 -7.008 -0.584
-8.479 -6.679 -1.812
-5.871 -7.151 1.281
-10.276 -4.809 -5.543
-11.356 -6.753 -4.624
-11.356 -6.753 -4.624
-7.571 -7.023 -0.545
-11.357 -6.753 -4.625
-9.367 -5.844 -3.529
-6.587 -7.052 0.467
-8.479 -6.679 -1.812
-7.498 -7.018 -0.477
-9.280 -7.669 -1.617
-6.040 -7.373 1.331
-7.125 -7.285 0.160
-10.770 -5.082 -5.699
-10.770 -5.082 -5.699
-10.273 -4.809 -5.540
-8.479 -6.679 -1.812
-6.044 -7.407 1.361
-9.280 -7.669 -1.617
-5.760 -6.829 1.072
-7.496 -7.019 -0.474
-11.356 -6.753 -4.624
-10.198 -4.841 -5.432
-10.846 -5.065 -5.792
-11.357 -6.753 -4.625
-10.846 -5.065 -5.792
-7.126 -7.284 0.158
-11.356 -6.753 -4.624
-10.683 -5.113 -5.580
-10.683 -5.113 -5.580
-8.509 -6.610 -1.912
-7.597 -7.007 -0.587
-7.597 -7.007 -0.587
-6.442 -7.162 0.719
-5.816 -7.337 1.521
-11.357 -6.753 -4.625
-6.487 -7.333 0.843
-11.833 -6.603 -5.255
-11.834 -6.603 -5.255
-11.833 -6.603 -5.255
-11.356 -6.753 -4.624
-9.297 -7.100 -2.196
-7.495 -7.020 -0.472
-6.547 -7.142 0.595
-9.280 -7.669 -1.617
-9.280 -7.669 -1.617
-9.990 -6.669 -3.352
-10.275 -4.808 -5.543
-10.846 -5.065 -5.791
-10.846 -5.065 -5.791
-8.479 -6.679 -1.812
-6.586 -7.051 0.466
-6.586 -7.049 0.464
-5.764 -6.830 1.068
-11.357 -6.753 -4.625
-7.275 -7.044 -0.231
-6.020 -7.302 1.281
-8.229 -6.661 -1.570
-9.280 -7.669 -1.617
-9.307 -6.001 -3.311
-11.833 -6.603 -5.255
-5.618 -6.943 1.325
-10.275 -4.809 -5.543
-8.270 -6.622 -1.649
-5.873 -7.150 1.280
-9.365 -5.845 -3.526
-11.356 -6.753 -4.624
-5.826 -7.333 1.507
-9.989 -6.669 -3.352
-8.229 -6.661 -1.570
-6.508 -7.324 0.811
-9.280 -7.669 -1.617
-9.307 -6.001 -3.311
-5.763 -6.830 1.070
-11.356 -6.753 -4.624
-9.280 -7.669 -1.617
-7.595 -7.008 -0.584
-10.265 -4.810 -5.531
-5.889 -7.019 1.131
-10.683 -5.113 -5.580
-10.190 -4.826 -5.440
-9.329 -7.679 -1.656
-9.280 -7.669 -1.617
-5.760 -6.829 1.071
-6.512 -7.323 0.807
-7.295 -7.044 -0.252
-11.356 -6.753 -4.624
-7.895 -7.237 -0.658
-6.633 -7.340 0.702
-5.941 -7.008 1.069
-7.406 -7.327 -0.077
-8.532 -6.655 -1.890
-6.586 -7.051 0.466
-6.586 -7.050 0.466
-6.045 -7.412 1.365
-11.362 -6.751 -4.632
-5.887 -7.152 1.268
-9.369 -5.841 -3.534
-9.369 -5.841 -3.534
-6.510 -7.324 0.810
-9.309 -5.999 -3.316
-11.834 -6.603 -5.256
-6.018 -7.298 1.278
-5.949 -7.007 1.060
-9.307 -6.001 -3.312
-9.280 -7.669 -1.617
-7.523 -7.010 -0.511
-8.479 -6.679 -1.812
-7.297 -7.045 -0.253
-9.989 -6.669 -3.352
-11.356 -6.753 -4.624
-11.356 -6.753 -4.624
-9.307 -6.001 -3.311
-6.587 -7.052 0.467
-7.296 -7.044 -0.253
-9.346 -5.869 -3.483
-11.833 -6.603 -5.255
-7.374 -7.675 0.304
-6.522 -7.066 0.545
-6.017 -7.299 1.280
-7.125 -7.285 0.160
-11.356 -6.753 -4.624
-8.229 -6.661 -1.570
-7.497 -7.018 -0.475
-8.500 -6.614 -1.898
-7.407 -7.326 -0.079
-6.586 -7.051 0.466
-7.597 -7.007 -0.587
-8.479 -6.679 -1.812
-8.479 -6.679 -1.812
-9.203 -7.642 -1.567
-9.297 -7.100 -2.196
-10.846 -5.065 -5.792
-7.268 -7.072 -0.197
-8.229 -6.661 -1.570
-10.760 -5.097 -5.673
-7.094 -7.322 0.227
-9.280 -7.669 -1.617
-6.103 -7.426 1.322
-9.280 -7.669 -1.617
-9.280 -7.669 -1.617
-6.585 -7.138 0.554
-8.507 -6.611 -1.909
-9.307 -6.001 -3.312
-6.587 -7.052 0.467
-9.280 -7.669 -1.617
-9.365 -5.846 -3.525
-11.357 -6.753 -4.625
-6.021 -7.302 1.279
-7.571 -7.023 -0.545
-9.307 -6.001 -3.312
-11.356 -6.753 -4.624
-11.356 -6.753 -4.624
-8.479 -6.679 -1.812
-6.044 -7.407 1.361
-6.044 -7.407 1.361
-10.771 -5.082 -5.701
-9.990 -6.669 -3.352
-10.771 -5.082 -5.701
-11.357 -6.753 -4.625
-7.104 -7.321 0.216
-9.280 -7.669 -1.617
-6.585 -7.138 0.554
-6.490 -7.348 0.856
-6.549 -7.050 0.503
-5.760 -6.829 1.071
-8.199 -6.676 -1.525
-7.593 -7.009 -0.581
-6.438 -7.163 0.724
-6.503 -7.328 0.821
-6.503 -7.328 0.821
-6.039 -7.394 1.353
-6.438 -7.163 0.724
-11.828 -6.607 -5.246
-6.596 -7.357 0.757
-8.531 -6.654 -1.889
-11.827 -6.607 -5.245
-8.508 -6.609 -1.912
-6.585 -7.051 0.467
-5.940 -7.009 1.071
-7.124 -7.307 0.182
-7.298 -7.047 -0.252
-9.282 -7.669 -1.619
-5.943 -7.008 1.067
-10.768 -5.083 -5.695
-11.298 -6.788 -4.530
-8.227 -6.661 -1.568
-6.584 -7.051 0.468
-6.444 -7.160 0.715
-7.595 -7.007 -0.585
-9.359 -5.857 -3.508
-10.681 -5.115 -5.577
-11.353 -6.755 -4.619
-8.227 -6.661 -1.568
-11.353 -6.755 -4.619
-6.525 -7.153 0.628
-7.103 -7.321 0.218
-10.681 -5.115 -5.577
-10.681 -5.115 -5.577
-10.681 -5.115 -5.577
-5.727 -6.849 1.125
-10.840 -5.068 -5.783
-8.559 -6.570 -2.002
-10.758 -5.099 -5.670
-10.195 -4.841 -5.428
-8.268 -6.623 -1.647
-6.633 -7.341 0.704
-5.629 -6.949 1.321
-6.543 -7.137 0.594
-6.543 -7.137 0.594
-6.041 -7.390 1.347
-6.546 -7.049 0.504
-9.541 -7.625 -1.923
-5.759 -6.829 1.072
-5.943 -7.008 1.068
-7.394 -7.708 0.311
-6.375 -7.258 0.885
-6.488 -7.348 0.858
-9.986 -6.681 -3.336
-10.768 -5.083 -5.695
-9.283 -7.669 -1.619
-6.583 -7.137 0.555
-6.636 -7.340 0.700
-11.350 -6.756 -4.615
-6.022 -7.303 1.279
-8.477 -6.679 -1.809
-7.298 -7.048 -0.251
-11.350 -6.756 -4.614
-8.298 -6.930 -1.365
-11.350 -6.756 -4.614
-6.322 -7.275 0.956
-8.226 -6.662 -1.566
-6.546 -7.048 0.504
-7.123 -7.307 0.183
-6.546 -7.048 0.504
-11.350 -6.756 -4.614
-11.350 -6.756 -4.615
-5.949 -7.007 1.060
-6.606 -7.353 0.743
-6.606 -7.353 0.743
-5.824 -7.333 1.509
-6.021 -7.303 1.280
-6.487 -7.335 0.844
-9.282 -7.669 -1.619
-7.394 -7.709 0.311
-7.533 -7.666 0.135
-9.297 -7.100 -2.196
-6.637 -7.339 0.698
-6.637 -7.339 0.698
-6.545 -7.141 0.596
-11.350 -6.756 -4.614
-8.476 -6.679 -1.809
-6.470 -7.344 0.873
-10.768 -5.083 -5.695
-10.679 -5.115 -5.575
-10.271 -4.810 -5.537
-5.889 -7.019 1.131
-10.842 -5.067 -5.786
-10.842 -5.067 -5.786
-9.368 -5.819 -3.555
-7.440 -7.661 0.223
-10.758 -5.086 -5.683
-9.282 -7.669 -1.619
-11.473 -6.690 -4.806
-5.949 -7.007 1.060
-11.350 -6.756 -4.614
-7.277 -7.047 -0.230
-7.103 -7.321 0.218
-6.425 -7.172 0.746
-8.299 -6.930 -1.365
-5.941 -7.008 1.069
-10.680 -5.115 -5.575
-7.209 -8.353 1.146
-9.283 -7.669 -1.619
-6.040 -7.373 1.331
-7.382 -7.366 -0.014
-6.585 -7.052 0.468
-7.533 -7.666 0.135
-6.547 -7.051 0.505
-7.124 -6.982 -0.142
-7.125 -6.987 -0.138
-5.623 -7.009 1.388
-5.759 -6.829 1.073
-11.350 -6.756 -4.614
-11.350 -6.756 -4.615
-5.664 -6.929 1.266
-10.679 -5.115 -5.575
-4.940 -6.137 1.198
-7.893 -7.237 -0.656
-6.774 -8.090 1.317
-10.240 -10.518 0.279
-6.512 -7.322 0.806
-6.511 -7.322 0.806
-5.700 -6.670 0.974
-6.545 -7.137 0.592
-7.594 -7.007 -0.584
-11.350 -6.756 -4.614
-6.527 -7.062 0.536
-6.397 -7.282 0.887
-9.282 -7.669 -1.619
-9.297 -7.100 -2.196
-9.297 -7.100 -2.196
-5.878 -7.151 1.275
-6.448 -7.159 0.710
-6.775 -8.090 1.316
-7.457 -7.709 0.248
-7.296 -7.046 -0.250
-11.350 -6.756 -4.614
-8.530 -6.655 -1.889
-6.631 -7.343 0.708
-7.383 -7.364 -0.017
-5.631 -6.950 1.321
-5.631 -6.950 1.321
-6.546 -7.048 0.503
-10.270 -4.810 -5.537
-5.670 -7.794 2.124
-9.299 -7.099 -2.200
-7.437 -7.660 0.224
-6.638 -7.339 0.697
-9.310 -6.002 -3.314
-7.441 -7.661 0.222
-9.356 -5.861 -3.500
-7.298 -7.047 -0.252
-6.447 -7.346 0.897
-5.817 -7.336 1.520
-7.394 -7.707 0.310
-7.298 -7.047 -0.252
-6.634 -7.341 0.703
-6.547 -7.049 0.504
-7.535 -7.666 0.133
-6.584 -7.339 0.751
-7.125 -6.984 -0.142
-5.941 -7.009 1.069
-5.757 -8.230 2.476
-7.441 -7.661 0.222
-7.124 -7.307 0.182
-6.774 -8.090 1.317
-6.464 -7.344 0.878
-8.479 -6.678 -1.814
-8.479 -6.678 -1.814
-11.357 -6.753 -4.625
-9.283 -7.669 -1.621
-6.514 -7.324 0.806
-10.272 -4.809 -5.538
-6.406 -7.069 0.665
-8.479 -6.678 -1.814
-5.000 -6.119 1.121
-9.299 -7.099 -2.200
-7.422 -7.019 -0.400
-6.444 -7.160 0.716
-10.763 -5.085 -5.689
-9.310 -6.002 -3.314
-5.941 -7.009 1.069
-6.586 -7.052 0.468
-10.271 -4.809 -5.538
-9.310 -6.001 -3.314
-9.299 -7.099 -2.200
-5.944 -7.008 1.066
-5.697 -6.671 0.978
-6.513 -7.323 0.805
-6.584 -7.140 0.557
-7.382 -7.366 -0.014
-6.638 -7.339 0.697
-9.299 -7.099 -2.200
-6.449 -7.159 0.710
-6.586 -7.053 0.469
-6.638 -7.339 0.697
-7.123 -6.980 -0.143
-6.584 -7.140 0.557
-6.546 -7.141 0.596
-6.447 -7.160 0.713
-6.485 -7.347 0.860
-7.395 -7.710 0.312
-6.592 -7.334 0.738
-6.592 -7.334 0.738
-7.210 -8.353 1.145
-5.630 -6.945 1.316
-6.546 -7.141 0.596
-6.485 -7.347 0.860
-5.696 -6.672 0.979
-5.757 -6.829 1.074
-7.494 -7.020 -0.471
-9.310 -6.002 -3.314
-7.524 -7.008 -0.513
-7.126 -6.984 -0.142
-7.298 -7.047 -0.252
-7.298 -7.047 -0.252
-7.441 -7.661 0.222
-7.535 -7.666 0.133
-7.535 -7.666 0.133
-7.298 -7.047 -0.252
-7.457 -7.705 0.245
-11.358 -6.753 -4.626
-8.228 -6.660 -1.570
-5.941 -7.008 1.070
-5.941 -7.008 1.070
-6.510 -7.324 0.809
-9.952 -6.728 -3.253
-5.755 -8.230 2.478
-11.266 -6.789 -4.497
-6.323 -7.275 0.954
-6.425 -7.355 0.928
-5.223 -7.260 2.039
-9.664 -7.027 -2.637
-5.756 -8.230 2.477
-6.583 -7.053 0.472
-9.979 -6.685 -3.325
-7.471 -7.030 -0.438
-6.428 -7.170 0.742
-6.334 -7.270 0.939
-6.439 -7.352 0.911
-7.400 -7.668 0.271
-7.400 -7.668 0.271
-6.777 -8.090 1.314
-6.565 -7.345 0.777
-6.439 -7.352 0.911
-6.432 -7.168 0.735
-7.400 -7.668 0.271
-8.224 -6.661 -1.565
-6.443 -7.160 0.716
-7.116 -6.975 -0.141
-5.757 -8.230 2.476
-6.442 -7.346 0.902
-4.934 -6.134 1.201
-7.595 -7.007 -0.585
-7.125 -6.986 -0.139
-6.633 -7.341 0.704
-4.937 -6.132 1.196
-6.585 -7.051 0.468
-7.393 -7.706 0.310
-7.393 -7.706 0.310
-6.585 -7.051 0.468
-7.393 -7.706 0.310
-5.621 -7.011 1.392
-7.534 -7.666 0.134
-7.439 -7.660 0.223
-6.377 -7.258 0.883
-5.632 -6.667 1.038
-5.632 -6.667 1.038
-7.125 -6.986 -0.139
-7.382 -7.365 -0.015
-10.243 -10.519 0.277
-10.243 -10.519 0.277
-6.633 -7.341 0.704
-6.633 -7.341 0.704
-9.308 -6.004 -3.310
-10.768 -5.083 -5.696
-9.299 -7.100 -2.199
-7.123 -6.981 -0.142
-5.741 -6.825 1.086
-6.775 -8.090 1.316
-5.694 -6.673 0.982
-7.437 -7.660 0.225
-5.888 -6.743 0.849
-5.957 -7.014 1.059
-5.229 -5.748 0.522
-9.299 -7.100 -2.199
-7.532 -7.666 0.137
-5.943 -7.007 1.066
-5.943 -7.007 1.066
-6.449 -7.265 0.819
-9.299 -7.100 -2.199
-11.352 -6.755 -4.618
-4.930 -6.130 1.201
-6.527 -7.062 0.536
-7.471 -7.034 -0.434
-6.558 -7.349 0.788
-9.986 -6.679 -3.338
-7.282 -7.047 -0.236
-6.563 -7.347 0.779
-7.404 -7.668 0.266
-7.282 -7.047 -0.236
-6.532 -7.061 0.530
-6.532 -7.061 0.530
-6.531 -7.151 0.621
-6.804 -8.104 1.301
-5.612 -6.673 1.064
-6.429 -7.170 0.741
-6.429 -7.170 0.741
-6.429 -7.170 0.741
-6.429 -7.170 0.741
-6.569 -7.345 0.772
-6.569 -7.345 0.772
-6.873 -6.867 -0.005
-6.569 -7.344 0.771
-7.282 -7.047 -0.236
-6.399 -7.349 0.948
-9.283 -7.669 -1.620
-5.956 -7.014 1.060
-6.802 -8.104 1.303
-6.447 -7.161 0.714
-7.394 -7.708 0.311
-7.394 -7.708 0.311
-6.443 -7.162 0.719
-6.446 -7.161 0.715
-6.446 -7.161 0.715
-6.443 -7.162 0.719
-6.566 -7.330 0.760
-7.394 -7.708 0.311
-7.382 -7.366 -0.014
-4.933 -6.129 1.198
-6.441 -7.163 0.721
-7.124 -6.983 -0.142
-6.038 -7.372 1.332
-5.901 -7.621 1.722
-6.538 -7.332 0.790
-6.614 -7.342 0.724
-5.262 -5.736 0.477
-6.461 -7.163 0.701
-7.126 -6.992 -0.134
-8.477 -6.679 -1.811
-6.602 -7.140 0.538
-7.422 -7.704 0.278
-6.618 -7.341 0.719
-8.477 -6.679 -1.811
-7.298 -7.373 0.078
-7.298 -7.373 0.078
-6.461 -7.162 0.701
-6.461 -7.162 0.701
-6.615 -7.343 0.724
-7.300 -7.050 -0.250
-5.758 -6.825 1.070
-5.758 -6.825 1.070
-6.464 -7.163 0.699
-10.784 -5.083 -5.712
-6.775 -6.868 0.093
-6.469 -7.058 0.590
-9.401 -5.820 -3.586
-5.639 -6.944 1.306
-6.621 -7.340 0.716
-6.050 -7.388 1.336
-7.127 -6.992 -0.135
-6.457 -7.165 0.708
-6.457 -7.165 0.708
-7.127 -6.993 -0.134
-5.957 -7.017 1.063
-6.612 -7.344 0.728
-10.773 -5.086 -5.698
-5.699 -6.678 0.982
-7.371 -7.376 0.006
-6.896 -6.857 -0.039
-7.214 -8.355 1.143
-8.258 -6.573 -1.687
-6.463 -7.162 0.699
-7.021 -8.300 1.280
-6.604 -7.056 0.453
-5.795 -7.623 1.831
-7.438 -7.660 0.224
-6.779 -6.869 0.090
-7.297 -7.375 0.080
-7.142 -7.027 -0.116
-4.997 -6.139 1.143
-7.484 -7.702 0.214
-6.794 -8.099 1.306
-6.467 -7.344 0.876
-6.620 -7.339 0.715
-4.997 -6.138 1.142
-7.503 -7.019 -0.481
-8.477 -6.679 -1.811
-6.467 -7.161 0.694
-4.998 -6.138 1.142
-5.092 -8.104 3.014
-7.298 -7.373 0.078
-5.708 -6.669 0.965
-5.169 -5.735 0.569
-7.432 -7.019 -0.410
-6.461 -7.162 0.701
-5.796 -7.622 1.828
-6.564 -7.142 0.578
-5.414 -6.051 0.642
-5.262 -5.736 0.476
-6.794 -8.099 1.306
-6.794 -8.099 1.306
-6.900 -6.858 -0.042
-6.616 -7.342 0.722
-6.462 -7.162 0.700
-5.941 -7.011 1.072
-6.462 -7.162 0.700
-7.439 -7.661 0.223
-5.941 -7.011 1.072
-6.459 -7.164 0.705
-6.565 -7.054 0.490
-5.262 -5.736 0.476
-5.640 -6.666 1.029
-5.941 -7.011 1.072
-7.143 -7.027 -0.117
-6.455 -7.165 0.709
-7.143 -7.027 -0.116
-6.609 -7.345 0.732
-6.456 -7.164 0.708
-10.012 -11.527 1.513
-10.777 -11.877 1.098
-10.777 -11.877 1.098
-10.560 -11.873 1.310
-10.777 -11.877 1.098
-10.012 -11.527 1.513
-10.309 -11.935 1.625
-10.777 -11.877 1.098
-10.777 -11.877 1.098
-10.721 -11.871 1.148
-8.142 -8.083 -0.065
-10.714 -11.888 1.172
-10.560 -11.873 1.310
-10.560 -11.873 1.310
-10.337 -11.921 1.583
-10.573 -11.872 1.296
-10.777 -11.877 1.098
-10.713 -11.888 1.173
-10.309 -11.935 1.626
-10.573 -11.872 1.297
-10.292 -11.168 0.878
-10.011 -11.527 1.513
-7.993 -8.087 0.088
-10.571 -11.873 1.300
-8.142 -8.083 -0.065
-10.571 -11.874 1.300
-9.326 -11.575 2.250
-10.721 -11.871 1.148
-8.142 -8.083 -0.065
-8.142 -8.083 -0.065
-10.714 -11.888 1.172
-10.571 -11.873 1.300
-10.714 -11.888 1.172
-8.142 -8.083 -0.065
-10.721 -11.871 1.149
-10.713 -11.888 1.173
-10.713 -11.888 1.173
-10.713 -11.888 1.173
-10.780 -11.878 1.096
-8.138 -8.084 -0.060
-10.780 -11.878 1.096
-10.302 -11.157 0.856
-10.302 -11.157 0.857
-10.302 -11.157 0.857
-10.715 -11.889 1.171
-10.566 -11.874 1.305
-8.138 -8.084 -0.060
-10.553 -11.874 1.318