-9.042 -9.049 0.020
-12.257 -8.458 -3.788
-9.042 -9.049 0.020
-12.821 -8.722 -4.096
-9.638 -9.036 -0.589
-12.861 -8.663 -4.194
-11.563 -7.757 -3.804
-9.638 -9.036 -0.589
-12.861 -8.663 -4.194
-9.593 -9.035 -0.544
-9.169 -8.423 -0.731
-9.593 -9.035 -0.544
-9.394 -8.398 -0.981
-9.908 -9.022 -0.872
-9.416 -8.394 -1.008
-9.698 -9.030 -0.654
-14.058 -7.644 -6.431
-9.193 -8.416 -0.762
-9.478 -8.431 -1.033
-9.478 -8.431 -1.033
-9.478 -8.431 -1.033
-9.408 -8.395 -0.998
-9.478 -8.431 -1.033
-9.581 -9.027 -0.540
-9.194 -8.413 -0.766
-9.497 -8.429 -1.053
-9.497 -8.429 -1.053
-9.497 -8.429 -1.053
-9.708 -9.031 -0.664
-9.635 -9.032 -0.589
-9.708 -9.031 -0.664
-12.335 -8.406 -3.920
-9.179 -8.419 -0.745
-12.893 -8.656 -4.233
-12.383 -8.713 -3.663
-9.618 -9.029 -0.575
-8.239 -8.334 0.110
-12.925 -8.670 -4.251
-9.594 -8.448 -1.132
-11.382 -8.104 -3.275
-9.618 -9.029 -0.575
-9.708 -9.031 -0.664
-7.986 -8.266 0.294
-9.657 -9.035 -0.608
-9.497 -8.429 -1.053
-11.469 -7.955 -3.511
-8.275 -8.876 0.615
-8.684 -8.608 -0.064
-9.206 -8.415 -0.776
-12.335 -8.406 -3.919
-9.179 -8.419 -0.745
-9.038 -9.045 0.021
-9.497 -8.429 -1.053
-11.566 -7.809 -3.755
-11.119 -8.174 -2.939
-9.595 -8.448 -1.132
-9.497 -8.429 -1.053
-12.970 -8.570 -4.396
-9.685 -9.189 -0.483
-9.635 -9.032 -0.589
-9.193 -8.413 -0.766
-9.671 -9.029 -0.628
-8.891 -8.574 -0.305
-9.634 -9.032 -0.588
-9.206 -8.415 -0.777
-9.708 -9.031 -0.663
-9.635 -9.032 -0.589
-9.643 -9.036 -0.593
-9.708 -9.031 -0.663
-9.194 -8.413 -0.766
-9.708 -9.031 -0.663
-9.643 -9.036 -0.593
-9.497 -8.429 -1.053
-7.382 -8.272 0.904
-9.206 -8.415 -0.777
-12.385 -8.365 -4.011
-9.618 -9.029 -0.575
-8.588 -8.556 -0.020
-9.497 -8.429 -1.053
-9.671 -9.029 -0.628
-12.969 -8.571 -4.395
-12.895 -8.603 -4.289
-10.073 -9.010 -1.048
-12.867 -8.633 -4.231
-11.584 -7.770 -3.812
-12.289 -8.455 -3.824
-12.402 -8.357 -4.035
-8.275 -8.876 0.615
-9.633 -9.032 -0.587
-12.401 -8.358 -4.034
-8.218 -8.865 0.660
-12.982 -7.807 -5.191
-12.910 -8.652 -4.255
-9.581 -9.027 -0.540
-9.636 -9.032 -0.590
-7.986 -8.265 0.294
-11.585 -7.767 -3.816
-8.218 -8.865 0.660
-8.749 -8.571 -0.166
-9.641 -9.036 -0.591
-8.749 -8.571 -0.166
-8.749 -8.571 -0.166
-9.633 -9.032 -0.587
-9.633 -9.032 -0.587
-9.633 -9.032 -0.587
-8.220 -8.349 0.144
-8.377 -8.892 0.530
-9.706 -9.031 -0.661
-9.641 -9.036 -0.591
-9.191 -8.413 -0.763
-9.484 -8.432 -1.037
-9.632 -9.032 -0.586
-11.268 -7.999 -3.264
-9.176 -8.415 -0.746
-11.380 -8.148 -3.228
-12.862 -8.618 -4.242
-12.862 -8.618 -4.242
-9.580 -9.042 -0.524
-6.979 -7.301 0.337
-8.159 -8.437 0.292
-8.218 -8.352 0.149
-9.493 -8.429 -1.049
-9.640 -9.036 -0.590
-9.705 -9.031 -0.661
-9.705 -9.031 -0.661
-12.348 -8.400 -3.938
-9.178 -8.419 -0.744
-12.400 -8.358 -4.031
-7.810 -8.649 0.854
-12.980 -7.813 -5.183
-7.390 -8.277 0.901
-9.607 -9.031 -0.563
-12.942 -8.667 -4.271
-9.178 -8.419 -0.744
-11.582 -7.772 -3.808
-9.175 -8.415 -0.746
-9.175 -8.415 -0.746
-9.609 -9.034 -0.561
-12.289 -8.455 -3.823
-11.584 -7.768 -3.814
-9.581 -9.027 -0.540
-9.709 -9.031 -0.664
-9.709 -9.031 -0.664
-9.192 -8.413 -0.764
-9.495 -8.429 -1.052
-9.643 -9.036 -0.593
-8.146 -8.408 0.277
-8.901 -8.568 -0.321
-12.980 -7.811 -5.185
-9.767 -8.990 -0.763
-7.746 -8.988 1.257
-8.543 -8.801 0.269
-11.582 -7.771 -3.809
-7.977 -8.507 0.544
-11.584 -7.767 -3.815
-7.841 -8.689 0.862
-12.870 -8.710 -4.157
-12.767 -8.697 -4.067
-7.769 -8.366 0.612
-7.803 -8.637 0.848
-12.861 -8.618 -4.240
-9.574 -9.029 -0.532
-11.268 -7.999 -3.265
-11.584 -7.769 -3.813
-12.401 -8.358 -4.034
-9.585 -8.452 -1.118
-8.237 -8.337 0.115
-9.211 -8.418 -0.778
-9.211 -8.418 -0.778
-8.773 -8.567 -0.195
-12.913 -8.599 -4.311
-6.831 -7.319 0.503
-7.768 -8.367 0.614
-7.338 -7.969 0.643
-12.939 -8.283 -4.668
-12.861 -8.618 -4.241
-12.913 -8.598 -4.311
-12.134 -8.531 -3.593
-9.585 -8.452 -1.118
-9.709 -9.031 -0.664
-9.211 -8.418 -0.778
-8.897 -8.569 -0.317
-9.486 -8.432 -1.039
-7.984 -8.267 0.297
-9.709 -9.031 -0.664
-7.387 -8.274 0.901
-9.622 -9.034 -0.575
-9.192 -8.413 -0.764
-12.986 -8.567 -4.416
-11.582 -7.772 -3.808
-9.176 -8.415 -0.746
-9.610 -9.034 -0.562
-7.978 -8.507 0.544
-9.619 -9.029 -0.576
-9.495 -8.429 -1.052
-12.400 -8.358 -4.032
-8.602 -8.430 -0.157
-12.863 -8.012 -4.866
-12.863 -8.012 -4.866
-12.979 -7.817 -5.178
-9.197 -8.419 -0.763
-9.582 -9.028 -0.540
-8.681 -8.668 -0.008
-9.211 -8.418 -0.778
-9.211 -8.418 -0.778
-9.635 -9.032 -0.589
-9.709 -9.031 -0.664
-9.192 -8.413 -0.765
-7.387 -8.274 0.901
-8.900 -8.568 -0.321
-9.192 -8.413 -0.764
-9.635 -9.032 -0.589
-9.635 -9.032 -0.589
-7.684 -7.997 0.327
-11.268 -7.999 -3.265
-9.610 -9.034 -0.562
-12.401 -8.358 -4.034
-12.865 -8.007 -4.872
-9.276 -9.089 -0.173
-9.595 -9.032 -0.549
-7.331 -7.964 0.646
-9.179 -8.414 -0.749
-11.583 -7.770 -3.811
-9.585 -8.452 -1.118
-8.398 -8.793 0.407
-9.635 -9.032 -0.589
-11.584 -7.769 -3.812
-12.286 -8.402 -3.876
-9.319 -8.440 -0.865
-8.039 -8.257 0.232
-11.585 -7.766 -3.816
-12.401 -8.357 -4.035
-8.596 -8.427 -0.154
-7.858 -8.841 0.996
-12.914 -8.598 -4.312
-12.280 -8.463 -3.806
-12.861 -8.618 -4.241
-8.720 -8.583 -0.126
-9.419 -8.392 -1.013
-13.021 -7.928 -5.109
-9.200 -8.418 -0.767
-9.616 -9.030 -0.572
-12.834 -8.627 -4.205
-12.834 -8.627 -4.205
-12.993 -8.319 -4.687
-9.619 -9.030 -0.575
-9.627 -9.034 -0.579
-12.834 -8.626 -4.206
-12.156 -8.499 -3.648
-9.184 -9.030 -0.141
-6.882 -7.301 0.433
-7.782 -8.974 1.206
-11.256 -8.069 -3.182
-7.992 -8.514 0.536
-12.834 -8.625 -4.207
-9.181 -8.417 -0.749
-6.806 -7.318 0.526
-9.742 -8.986 -0.743
-9.396 -8.396 -0.985
-12.857 -8.637 -4.218
-9.395 -8.396 -0.984
-9.186 -8.421 -0.750
-9.167 -8.416 -0.736
-8.470 -8.629 0.171
-8.603 -8.428 -0.160
-8.470 -8.629 0.171
-8.470 -8.629 0.171
-6.806 -7.319 0.527
-13.047 -7.882 -5.182
-12.847 -7.976 -4.886
-8.615 -8.428 -0.172
-9.191 -8.416 -0.760
-8.586 -8.604 0.031
-9.582 -8.451 -1.116
-9.671 -9.029 -0.628
-11.581 -7.745 -3.835
-9.194 -8.420 -0.759
-12.915 -8.078 -4.851
-6.970 -7.302 0.346
-8.586 -8.604 0.031
-9.178 -8.415 -0.748
-12.847 -7.977 -4.885
-9.615 -9.035 -0.567
-12.915 -8.077 -4.853
-7.850 -8.636 0.799
-9.767 -8.991 -0.763
-9.582 -8.451 -1.116
-9.643 -9.037 -0.593
-8.651 -9.070 0.433
-9.795 -8.993 -0.788
-8.148 -8.410 0.277
-9.205 -8.414 -0.775
-8.772 -8.568 -0.193
-8.772 -8.568 -0.193
-7.324 -8.280 0.970
-9.644 -9.037 -0.594
-9.204 -8.414 -0.775
-9.622 -9.034 -0.575
-8.772 -8.568 -0.193
-12.916 -8.676 -4.236
-9.177 -8.419 -0.743
-7.200 -7.964 0.777
-9.392 -8.398 -0.979
-12.834 -8.629 -4.203
-9.572 -9.029 -0.529
-7.842 -8.891 1.063
-8.466 -8.630 0.175
-9.581 -9.028 -0.540
-8.627 -8.426 -0.186
-6.878 -7.303 0.439
-9.211 -8.418 -0.778
-8.782 -8.875 0.108
-8.135 -8.528 0.405
-8.135 -8.528 0.405
-9.634 -9.033 -0.588
-9.113 -9.422 0.315
-8.433 -8.898 0.480
-8.775 -8.567 -0.196
-9.794 -8.993 -0.787
-13.560 -8.393 -5.164
-9.392 -8.398 -0.979
-12.978 -7.826 -5.168
-7.936 -8.310 0.388
-8.590 -8.603 0.025
-12.862 -8.618 -4.242
-7.927 -8.996 1.083
-9.177 -8.419 -0.743
-8.475 -8.628 0.165
-12.978 -7.825 -5.169
-9.615 -9.035 -0.566
-8.006 -8.495 0.504
-8.006 -8.495 0.504
-7.981 -8.314 0.347
-7.926 -8.973 1.061
-8.610 -8.425 -0.170
-12.862 -8.619 -4.241
-8.596 -8.428 -0.154
-9.165 -8.418 -0.732
-12.932 -8.108 -4.839
-6.817 -7.319 0.516
-9.678 -9.029 -0.635
-9.184 -8.418 -0.751
-8.592 -8.603 0.023
-12.400 -8.359 -4.032
-12.400 -8.359 -4.032
-6.803 -7.319 0.531
-9.559 -9.030 -0.515
-12.861 -8.619 -4.240
-12.931 -8.108 -4.838
-12.979 -7.823 -5.172
-7.334 -7.965 0.645
-8.590 -8.603 0.025
-6.819 -7.317 0.513
-7.866 -8.524 0.673
-12.862 -8.618 -4.242
-9.165 -8.418 -0.732
-12.863 -8.018 -4.860
-12.932 -8.108 -4.838
-9.197 -8.420 -0.763
-6.868 -7.303 0.449
-7.934 -8.285 0.365
-8.615 -8.427 -0.173
-8.615 -8.428 -0.172
-9.278 -9.078 -0.186
-7.826 -8.708 0.895
-9.767 -8.991 -0.762
-7.822 -8.721 0.912
-8.592 -8.603 0.023
-8.613 -8.426 -0.172
-6.869 -7.302 0.448
-12.862 -8.618 -4.242
-9.582 -9.033 -0.535
-12.914 -8.599 -4.311
-12.861 -8.619 -4.240
-8.600 -8.429 -0.156
-7.200 -7.963 0.776
-9.581 -9.033 -0.535
-9.319 -8.440 -0.864
-7.045 -8.224 1.194
-9.198 -8.417 -0.766
-7.277 -8.277 1.015
-8.628 -8.426 -0.188
-9.419 -8.393 -1.011
-9.793 -8.993 -0.786
-8.626 -8.425 -0.186
-7.190 -7.957 0.780
-9.486 -8.432 -1.039
-8.629 -8.427 -0.187
-8.486 -8.790 0.316
-9.102 -9.427 0.331
-7.966 -8.973 1.021
-8.037 -8.257 0.234
-8.770 -8.568 -0.191
-9.210 -8.418 -0.777
-8.247 -8.728 0.496
-8.247 -8.728 0.496
-12.978 -7.824 -5.171
-12.862 -8.619 -4.241
-8.602 -8.430 -0.157
-12.769 -8.697 -4.068
-11.582 -7.774 -3.807
-8.747 -9.017 0.284
-8.769 -8.568 -0.190
-9.635 -9.033 -0.589
-8.119 -8.532 0.425
-8.681 -8.775 0.106
-8.142 -8.413 0.285
-8.804 -8.994 0.205
-8.037 -8.257 0.235
-11.582 -7.774 -3.806
-8.607 -8.425 -0.167
-7.644 -8.050 0.420
-7.796 -8.469 0.683
-9.609 -9.035 -0.561
-8.565 -8.609 0.056
-8.088 -8.887 0.814
-12.933 -8.588 -4.343
-9.184 -8.423 -0.746
-6.856 -7.304 0.462
-8.602 -8.430 -0.157
-6.856 -7.304 0.462
-8.552 -9.109 0.571
-9.184 -8.423 -0.746
-7.818 -8.365 0.562
-13.041 -7.942 -5.114
-9.298 -9.078 -0.206
-8.524 -8.608 0.096
-6.870 -7.302 0.447
-8.524 -8.608 0.096
-9.178 -8.415 -0.749
-8.602 -8.426 -0.161
-9.184 -8.418 -0.751
-9.178 -8.415 -0.749
-8.615 -8.428 -0.173
-8.220 -8.987 0.782
-12.987 -8.567 -4.417
-9.266 -9.078 -0.174
-8.554 -9.109 0.569
-8.039 -9.058 1.033
-8.475 -8.628 0.165
-12.931 -8.108 -4.837
-9.197 -8.420 -0.763
-9.184 -8.419 -0.751
-7.920 -8.881 0.974
-6.868 -7.303 0.449
-9.197 -8.420 -0.763
-7.912 -8.307 0.410
-9.594 -9.032 -0.548
-7.761 -8.991 1.245
-9.584 -8.452 -1.118
-8.616 -8.425 -0.176
-9.198 -8.417 -0.766
-8.338 -8.807 0.480
-8.349 -9.010 0.675
-7.189 -7.958 0.781
-8.331 -8.812 0.493
-8.806 -8.993 0.202
-8.628 -8.426 -0.187
-8.000 -8.439 0.453
-9.327 -9.081 -0.232
-9.643 -9.037 -0.592
-8.126 -8.530 0.417
-8.614 -8.424 -0.175
-7.331 -7.963 0.645
-8.610 -8.422 -0.173
-8.623 -8.423 -0.185
-8.100 -8.448 0.362
-9.419 -8.393 -1.011
-7.948 -8.314 0.380
-8.249 -8.727 0.492
-9.326 -9.081 -0.231
-8.284 -8.732 0.463
-9.621 -9.034 -0.573
-8.626 -8.425 -0.186
-8.792 -9.004 0.227
-8.166 -8.455 0.303
-9.210 -8.421 -0.774
-9.023 -9.470 0.453
-8.664 -8.582 -0.070
-8.091 -8.475 0.398
-7.669 -8.011 0.356
-7.306 -7.982 0.689
-8.729 -8.577 -0.140
-8.039 -8.522 0.498
-8.260 -8.815 0.568
-8.246 -8.730 0.499
-8.673 -9.064 0.406
-8.081 -8.540 0.471
-9.067 -9.465 0.405
-8.042 -8.542 0.512
-8.554 -8.775 0.228
-7.970 -8.247 0.291
-8.729 -8.577 -0.140
-7.951 -8.245 0.309
-8.395 -8.924 0.544
-8.766 -8.581 -0.174
-11.573 -7.849 -3.722
-7.622 -8.046 0.437
-7.727 -8.679 0.964
-8.563 -8.611 0.060
-7.633 -8.050 0.431
-8.563 -8.611 0.060
-6.767 -7.324 0.571
-8.613 -8.429 -0.169
-8.563 -8.611 0.061
-8.497 -8.616 0.132
-7.833 -8.750 0.929
-8.180 -8.997 0.832
-7.919 -8.319 0.414
-9.616 -9.037 -0.565
-8.617 -8.431 -0.171
-8.563 -8.611 0.061
-7.833 -8.466 0.642
-7.738 -8.991 1.267
-7.833 -8.466 0.642
-8.874 -8.402 -0.457
-8.598 -8.424 -0.159
-7.793 -8.470 0.687
-7.927 -8.291 0.378
-7.851 -8.553 0.716
-12.850 -8.624 -4.225
-7.350 -7.973 0.635
-8.551 -9.112 0.575
-6.732 -7.319 0.602
-7.916 -8.991 1.091
-8.012 -8.553 0.551
-12.122 -8.531 -3.582
-12.851 -8.623 -4.226
-8.058 -8.550 0.502
-8.346 -8.921 0.583
-9.171 -8.420 -0.736
-8.049 -9.062 1.027
-8.560 -9.113 0.567
-7.952 -8.993 1.055
-12.851 -8.623 -4.225
-7.913 -8.988 1.089
-7.942 -8.992 1.065
-7.350 -7.973 0.635
-8.549 -9.113 0.578
-12.851 -8.623 -4.226
-12.745 -8.444 -4.311
-7.650 -8.045 0.408
-12.883 -8.688 -4.192
-8.058 -8.550 0.502
-8.012 -8.552 0.551
-8.479 -8.628 0.161
-6.792 -7.320 0.542
-12.939 -8.048 -4.907
-8.870 -9.586 0.724
-8.021 -8.500 0.494
-8.870 -9.586 0.724
-7.335 -7.965 0.642
-7.760 -8.446 0.695
-7.196 -7.958 0.775
-8.589 -8.603 0.026
-7.953 -8.285 0.347
-12.851 -8.622 -4.227
-13.094 -8.049 -5.061
-8.589 -8.603 0.027
-8.598 -8.421 -0.162
-9.187 -8.416 -0.755
-7.933 -8.284 0.365
-9.180 -8.413 -0.753
-8.681 -9.048 0.382
-8.503 -9.071 0.583
-8.870 -9.587 0.725
-8.832 -9.590 0.766
-7.157 -7.961 0.817
-9.605 -9.031 -0.560
-8.115 -8.853 0.753
-7.948 -8.307 0.373
-9.286 -9.074 -0.198
-9.286 -9.074 -0.198
-8.870 -9.587 0.725
-7.952 -8.285 0.347
-8.832 -9.590 0.766
-8.589 -8.603 0.027
-9.187 -8.416 -0.755
-7.659 -8.044 0.398
-7.895 -8.525 0.645
-8.832 -9.590 0.766
-8.115 -8.853 0.753
-8.680 -9.049 0.384
-7.194 -7.959 0.778
-7.780 -8.652 0.884
-7.761 -8.446 0.695
-9.288 -9.076 -0.198
-9.288 -9.076 -0.198
-8.832 -9.590 0.766
-9.288 -9.076 -0.198
-8.209 -8.979 0.785
-8.832 -9.590 0.766
-7.808 -8.442 0.643
-8.870 -9.587 0.725
-7.952 -8.285 0.347
-7.648 -8.045 0.410
-8.617 -8.426 -0.176
-9.193 -8.414 -0.764
-8.209 -8.979 0.785
-8.870 -9.587 0.725
-8.448 -8.843 0.403
-8.681 -9.048 0.382
-8.530 -9.068 0.552
-8.209 -8.979 0.785
-7.335 -7.965 0.642
-7.953 -8.285 0.347
-7.850 -8.711 0.873
-6.746 -7.317 0.586
-7.780 -8.652 0.885
-8.625 -8.607 -0.006
-7.952 -8.285 0.347
-8.598 -8.603 0.017
-8.679 -9.049 0.384
-8.210 -8.979 0.784
-7.847 -8.722 0.888
-7.670 -8.049 0.392
-9.286 -9.074 -0.198
-8.079 -8.851 0.787
-7.823 -8.300 0.492
-7.952 -8.285 0.347
-7.659 -8.044 0.398
-9.309 -9.076 -0.218
-8.870 -9.587 0.725
-8.115 -8.853 0.753
-8.679 -9.049 0.384
-9.187 -8.416 -0.755
-7.895 -8.525 0.645
-8.115 -8.853 0.753
-9.626 -9.034 -0.579
-9.187 -8.416 -0.755
-8.423 -8.840 0.425
-7.781 -8.652 0.884
-8.841 -9.591 0.758
-7.808 -8.441 0.643
-7.241 -8.289 1.062
-7.761 -8.446 0.695
-8.209 -8.979 0.785
-8.209 -8.979 0.785
-9.187 -8.416 -0.755
-7.808 -8.442 0.643
-7.879 -8.531 0.666
-8.433 -8.876 0.451
-7.952 -8.285 0.347
-8.115 -8.853 0.753
-7.808 -8.441 0.643
-8.604 -8.424 -0.165
-9.605 -9.031 -0.560
-7.952 -8.285 0.347
-7.808 -8.441 0.643
-8.115 -8.853 0.753
-8.625 -8.607 -0.006
-9.187 -8.416 -0.755
-8.680 -9.049 0.384
-8.617 -8.426 -0.176
-8.210 -8.976 0.781
-7.335 -7.965 0.642
-6.807 -7.319 0.527
-9.186 -8.416 -0.755
-9.186 -8.416 -0.755
-8.210 -8.976 0.781
-7.842 -8.302 0.475
-8.423 -8.840 0.425
-9.605 -9.031 -0.560
-7.949 -8.283 0.349
-7.216 -8.290 1.089
-7.933 -8.284 0.365
-7.670 -8.049 0.392
-8.105 -8.850 0.759
-7.649 -8.045 0.410
-8.598 -8.603 0.017
-7.962 -8.886 0.936
-8.870 -9.587 0.725
-8.680 -9.049 0.384
-9.605 -9.031 -0.560
-9.288 -9.075 -0.199
-8.578 -9.067 0.504
-7.952 -8.285 0.347
-7.949 -8.283 0.349
-7.845 -8.723 0.891
-7.823 -8.300 0.492
-8.072 -8.863 0.806
-9.187 -8.416 -0.756
-7.921 -8.304 0.397
-7.761 -8.446 0.695
-8.681 -9.048 0.381
-7.953 -8.285 0.347
-8.589 -8.603 0.027
-9.187 -8.416 -0.755
-9.187 -8.416 -0.755
-7.842 -8.302 0.475
-8.690 -9.050 0.374
-7.933 -8.284 0.365
-9.288 -9.076 -0.198
-9.605 -9.031 -0.560
-9.288 -9.075 -0.199
-6.804 -7.321 0.531
-8.680 -9.049 0.384
-7.842 -8.302 0.475
-7.649 -8.045 0.409
-7.952 -8.285 0.347
-7.933 -8.284 0.365
-7.933 -8.284 0.365
-8.680 -9.049 0.384
-7.649 -8.045 0.409
-8.870 -9.587 0.725
-8.437 -8.873 0.444
-8.578 -9.067 0.504
-8.463 -8.875 0.421
-7.952 -8.285 0.347
-7.954 -8.975 1.034
-7.737 -8.358 0.629
-8.331 -8.905 0.587
-7.668 -8.011 0.356
-7.970 -8.247 0.291
-8.373 -8.914 0.556
-8.010 -8.576 0.580
-8.587 -8.407 -0.165
-8.727 -8.576 -0.139
-7.977 -8.248 0.286
-8.727 -8.576 -0.139
-8.391 -8.925 0.548
-8.764 -8.579 -0.172
-7.866 -8.264 0.413
-9.628 -9.033 -0.581
-8.764 -8.579 -0.173
-7.678 -8.011 0.347
-7.972 -8.969 1.011
-9.627 -9.033 -0.581
-7.678 -8.011 0.346
-8.369 -8.918 0.564
-7.700 -8.016 0.329
-9.058 -9.468 0.416
-7.763 -8.977 1.228
-9.022 -9.471 0.456
-8.764 -8.579 -0.173
-9.196 -8.415 -0.766
-8.736 -8.575 -0.149
-7.977 -8.248 0.286
-8.040 -8.483 0.458
-8.769 -9.006 0.251
-9.196 -8.415 -0.766
-9.627 -9.033 -0.581
-7.977 -8.248 0.286
-7.977 -8.248 0.286
-7.977 -8.248 0.286
-7.944 -8.550 0.621
-8.244 -8.734 0.505
-7.700 -8.016 0.329
-8.624 -8.424 -0.186
-7.958 -8.247 0.303
-8.769 -9.006 0.251
-9.196 -8.415 -0.766
-8.070 -8.490 0.434
-9.058 -9.468 0.416
-9.065 -9.466 0.407
-7.977 -8.248 0.286
-9.022 -9.471 0.456
-8.086 -8.542 0.468
-9.196 -8.415 -0.766
-7.367 -8.667 1.315
-8.273 -8.921 0.663
-8.086 -8.542 0.468
-9.627 -9.033 -0.581
-7.199 -7.960 0.774
-9.196 -8.415 -0.766
-7.342 -8.279 0.952
-9.197 -8.415 -0.768
-8.087 -8.541 0.467
-7.668 -8.005 0.351
-7.441 -8.680 1.254
-8.939 -9.120 0.195
-8.213 -8.731 0.533
-7.978 -8.248 0.284
-7.744 -8.357 0.621
-7.824 -8.314 0.503
-6.814 -7.322 0.522
-9.629 -9.032 -0.583
-9.629 -9.032 -0.583
-8.702 -8.584 -0.106
-8.659 -9.061 0.417
-7.978 -8.248 0.284
-7.996 -8.461 0.480
-8.011 -8.456 0.460
-7.867 -8.263 0.411
-8.729 -8.575 -0.143
-7.975 -8.969 1.007
-7.744 -8.357 0.621
-6.830 -7.317 0.502
-9.197 -8.415 -0.768
-8.087 -8.541 0.467
-9.057 -9.466 0.415
-9.020 -9.469 0.456
-9.198 -8.415 -0.768
-7.744 -8.357 0.621
-8.773 -9.002 0.244
-8.607 -9.061 0.469
-7.744 -8.357 0.621
-8.766 -8.579 -0.176
-8.766 -8.579 -0.176
-8.766 -8.579 -0.176
-9.057 -9.466 0.415
-7.867 -8.263 0.411
-8.586 -8.776 0.197
-8.766 -8.579 -0.176
-9.027 -9.468 0.447
-8.571 -8.817 0.254
-8.255 -8.815 0.571
-8.738 -8.574 -0.152
-8.766 -8.579 -0.176
-9.057 -9.466 0.415
-8.615 -8.423 -0.177
-7.978 -8.248 0.284
-7.959 -8.246 0.301
-8.071 -8.541 0.482
-8.940 -9.121 0.195
-7.679 -8.010 0.344
-7.696 -8.362 0.675
-8.766 -8.579 -0.176
-7.974 -8.246 0.286
-7.442 -8.681 1.253
-9.063 -9.464 0.407
-8.560 -8.770 0.217
-8.043 -8.484 0.455
-9.057 -9.466 0.415
-7.192 -7.957 0.778
-7.761 -8.973 1.226
-8.240 -8.727 0.501
-8.179 -8.757 0.593
-7.679 -8.010 0.345
-7.701 -8.015 0.327
-8.729 -8.575 -0.143
-7.690 -8.009 0.333
-7.971 -8.967 1.009
-9.064 -9.464 0.407
-9.020 -9.469 0.456
-7.959 -8.246 0.301
-7.690 -8.009 0.333
-14.178 -7.655 -6.541
-7.908 -8.545 0.652
-7.763 -8.445 0.692
-7.935 -8.283 0.362
-8.022 -8.481 0.473
-8.212 -8.979 0.782
-8.912 -9.115 0.217
-8.683 -9.049 0.380
-8.879 -9.579 0.707
-7.651 -8.044 0.406
-7.918 -8.971 1.066
-8.235 -8.979 0.758
-7.763 -8.445 0.692
-7.673 -8.049 0.389
-8.022 -8.481 0.473
-7.652 -8.044 0.406
-7.904 -8.292 0.402
-7.662 -8.044 0.395
-7.935 -8.283 0.362
-9.289 -9.076 -0.199
-7.955 -8.285 0.345
-8.842 -9.583 0.748
-7.662 -8.044 0.395
-7.844 -8.301 0.472
-7.844 -8.301 0.472
-8.631 -8.606 -0.013
-7.651 -8.045 0.407
-8.631 -8.606 -0.013
-8.842 -9.583 0.748
-7.951 -8.283 0.347
-7.907 -8.546 0.653
-7.673 -8.049 0.389
-7.818 -8.741 0.936
-8.058 -8.489 0.444
-8.028 -8.483 0.468
-7.849 -8.752 0.916
-7.662 -8.044 0.395
-8.028 -8.483 0.469
-8.537 -8.601 0.076
-8.058 -8.489 0.444
-8.683 -9.049 0.380
-8.432 -8.836 0.412
-8.058 -8.489 0.444
-8.631 -8.606 -0.013
-8.879 -9.579 0.707
-7.673 -8.049 0.389
-8.028 -8.483 0.469
-7.955 -8.285 0.345
-7.845 -8.302 0.472
-8.631 -8.606 -0.013
-7.811 -8.441 0.640
-8.879 -9.579 0.707
-8.234 -8.985 0.765
-8.028 -8.483 0.468
-7.955 -8.285 0.345
-8.058 -8.489 0.444
-7.951 -8.283 0.346
-8.887 -9.579 0.699
-8.703 -9.050 0.361
-7.763 -8.445 0.692
-8.879 -9.579 0.707
-7.662 -8.044 0.395
-8.631 -8.606 -0.013
-8.927 -9.122 0.208
-7.730 -6.167 -1.549
-7.765 -6.023 -1.729
-7.673 -6.126 -1.534
-7.765 -6.023 -1.729
-7.730 -6.167 -1.549
-7.673 -6.126 -1.534
-7.673 -6.126 -1.534
-9.778 -8.990 -0.775
-8.881 -8.399 -0.467
-6.601 -5.835 -0.751
-7.757 -5.934 -1.809
-7.757 -5.934 -1.809
-7.765 -6.022 -1.730
-9.410 -8.392 -1.003
-6.744 -7.317 0.588
-7.673 -6.126 -1.534
-7.662 -6.069 -1.580
-9.410 -8.392 -1.003
-7.673 -6.126 -1.534
-9.410 -8.392 -1.003
-6.585 -5.844 -0.727
-6.581 -5.853 -0.714
-6.581 -5.853 -0.714
-8.880 -8.402 -0.464
-7.673 -6.126 -1.534
-6.584 -5.844 -0.726
-7.765 -6.023 -1.729
-6.583 -5.845 -0.725
-8.882 -8.403 -0.464
-9.410 -8.392 -1.003
-7.673 -6.126 -1.534
-8.604 -8.424 -0.165
-6.581 -5.853 -0.714
-8.604 -8.423 -0.166
-6.585 -5.844 -0.727
-9.833 -4.440 -5.407
-6.584 -5.845 -0.726
-6.599 -5.836 -0.749
-6.590 -5.906 -0.670
-9.778 -8.990 -0.775
-7.674 -6.126 -1.535
-6.584 -5.844 -0.726
-9.410 -8.392 -1.003
-6.585 -5.844 -0.727
-5.648 -5.587 -0.046
-6.570 -5.847 -0.709
-7.697 -6.122 -1.562
-7.737 -6.015 -1.709
-9.793 -8.993 -0.786
-6.600 -5.835 -0.751
-7.418 -5.601 -1.802
-9.415 -8.391 -1.009
-9.415 -8.391 -1.009
-9.415 -8.391 -1.009
-8.609 -8.423 -0.172
-6.600 -5.835 -0.751
-6.600 -5.835 -0.751
-6.581 -5.852 -0.715
-9.793 -8.993 -0.786
-6.585 -5.844 -0.727
-7.755 -5.936 -1.806
-7.212 -7.965 0.767
-6.600 -5.836 -0.750
-7.676 -6.126 -1.538
-8.889 -8.400 -0.475
-6.602 -5.835 -0.753
-8.612 -8.421 -0.176
-7.764 -5.991 -1.760
-8.065 -8.574 0.524
-8.609 -8.419 -0.175
-6.215 -5.759 -0.441
-9.842 -4.431 -5.425
-9.420 -8.391 -1.014
-8.614 -8.422 -0.177
-9.420 -8.391 -1.014
-9.497 -4.431 -5.080
-9.420 -8.391 -1.014
-9.191 -8.410 -0.766
-7.676 -6.126 -1.537
-7.414 -5.645 -1.755
-9.420 -8.391 -1.014
-7.414 -5.645 -1.755
-9.420 -8.391 -1.014
-8.614 -8.422 -0.177
-9.798 -8.992 -0.793
-9.191 -8.410 -0.766
-6.592 -5.906 -0.672
-5.142 -5.794 0.667
-8.616 -8.422 -0.179
-8.616 -8.422 -0.179
-9.311 -9.076 -0.221
-9.311 -9.076 -0.221
-7.640 -6.119 -1.508
-9.190 -8.411 -0.765
-7.605 -6.200 -1.393
-9.639 -9.031 -0.594
-8.612 -8.421 -0.176
-7.715 -6.108 -1.595
-8.609 -8.420 -0.174
-6.582 -5.852 -0.716
-6.586 -5.844 -0.728
-6.601 -5.836 -0.751
-7.715 -6.107 -1.595
-8.888 -8.396 -0.478
-6.179 -5.769 -0.395
-9.639 -9.031 -0.594
-6.214 -5.760 -0.440
-8.612 -8.421 -0.176
-7.404 -5.623 -1.767
-7.404 -5.623 -1.767
-6.178 -5.769 -0.395
-8.612 -8.421 -0.176
-9.191 -8.411 -0.766
-8.891 -8.401 -0.475
-7.676 -6.126 -1.537
-9.420 -8.391 -1.014
-7.676 -6.126 -1.537
-9.191 -8.411 -0.765
-5.778 -5.629 -0.134
-8.614 -8.423 -0.177
-7.752 -5.967 -1.771
-6.601 -5.836 -0.751
-8.614 -8.422 -0.177
-7.715 -6.107 -1.595
-9.420 -8.391 -1.014
-9.191 -8.410 -0.766
-7.676 -6.126 -1.537
-8.614 -8.423 -0.177
-9.638 -9.031 -0.593
-8.612 -8.422 -0.176
-8.612 -8.422 -0.176
-8.612 -8.422 -0.176
-4.849 -5.750 0.915
-7.405 -5.623 -1.767
-6.582 -5.852 -0.715
-5.764 -5.631 -0.119
-7.676 -6.126 -1.538
-7.159 -7.962 0.816
-8.891 -8.399 -0.477
-9.191 -8.410 -0.766
-9.191 -8.410 -0.766
-7.715 -6.108 -1.595
-6.564 -5.901 -0.650
-6.965 -5.772 -1.180
-6.593 -5.906 -0.673
-5.142 -5.794 0.667
-7.164 -7.962 0.811
-8.610 -8.419 -0.176
-8.610 -8.419 -0.176
-6.178 -5.769 -0.394
-6.751 -7.318 0.581
-5.042 -5.430 0.402
-8.609 -8.420 -0.175
-9.306 -9.075 -0.218
-6.600 -5.835 -0.751
-9.306 -9.075 -0.217
-9.306 -9.075 -0.217
-7.404 -5.623 -1.766
-8.886 -8.398 -0.474
-5.761 -5.631 -0.116
-7.429 -6.122 -1.294
-8.609 -8.420 -0.174
-7.429 -6.122 -1.293
-7.756 -5.935 -1.808
-6.587 -5.844 -0.729
-8.609 -8.420 -0.175
-6.587 -5.844 -0.729
-9.638 -9.031 -0.594
-9.522 -4.468 -5.068
-5.168 -5.617 0.463
-7.751 -5.968 -1.769
-9.480 -9.036 -0.430
-7.715 -6.108 -1.595
-8.609 -8.420 -0.174
-7.429 -6.122 -1.293
-6.750 -7.318 0.582
-6.593 -5.906 -0.673
-9.192 -8.410 -0.768
-7.676 -6.126 -1.537
-5.819 -5.665 -0.139
-7.676 -6.126 -1.537
-9.307 -9.077 -0.216
-7.729 -6.167 -1.548
-5.042 -5.430 0.402
-9.420 -8.391 -1.014
-6.593 -5.906 -0.673
-9.311 -9.076 -0.221
-6.585 -5.844 -0.727
-7.755 -5.936 -1.806
-9.481 -9.037 -0.430
-6.612 -5.918 -0.680
-5.734 -5.635 -0.084
-5.734 -5.635 -0.084
-7.676 -6.126 -1.537
-7.751 -5.968 -1.770
-7.676 -6.126 -1.537
-9.837 -4.432 -5.419
-5.086 -5.838 0.767
-5.159 -5.779 0.635
-7.971 -8.547 0.590
-7.468 -6.126 -1.329
-7.751 -5.968 -1.770
-9.481 -9.037 -0.430
-7.752 -5.967 -1.771
-8.890 -8.401 -0.475
-7.715 -6.108 -1.595
-6.585 -5.844 -0.727
-7.677 -6.125 -1.539
-7.677 -6.125 -1.539
-8.619 -8.425 -0.180
-6.029 -5.893 -0.120
-9.420 -8.391 -1.014
-7.405 -5.623 -1.767
-6.586 -5.844 -0.728
-6.566 -5.900 -0.652
-4.591 -5.274 0.698
-7.405 -5.623 -1.767
-7.676 -6.126 -1.538
-9.308 -9.077 -0.217
-7.676 -6.126 -1.538
-8.614 -8.423 -0.177
-7.715 -6.108 -1.595
-6.585 -5.910 -0.662
-4.591 -5.274 0.698
-5.992 -5.903 -0.073
-5.992 -5.903 -0.073
-8.611 -8.420 -0.176
-9.193 -8.411 -0.768
-9.642 -9.031 -0.598
-5.743 -5.634 -0.095
-8.614 -8.422 -0.178
-6.595 -5.868 -0.713
-5.763 -5.631 -0.118
-7.469 -6.125 -1.331
-6.586 -5.844 -0.728
-7.676 -6.126 -1.538
-5.099 -5.829 0.745
-8.613 -8.422 -0.176
-8.613 -8.422 -0.176
-6.029 -5.893 -0.120
-7.676 -6.126 -1.538
-7.676 -6.126 -1.538
-6.593 -5.906 -0.673
-7.469 -6.125 -1.330
-7.469 -6.125 -1.330
-5.779 -5.629 -0.136
-5.779 -5.629 -0.136
-9.524 -4.467 -5.071
-7.715 -6.108 -1.595
-7.427 -6.123 -1.291
-7.752 -5.968 -1.771
-7.427 -6.123 -1.291
-4.593 -5.272 0.694
-4.593 -5.272 0.694
-5.781 -5.629 -0.137
-7.404 -5.624 -1.765
-7.678 -6.126 -1.539
-5.099 -5.829 0.745
-6.956 -5.775 -1.169
-8.887 -8.399 -0.474
-9.640 -9.031 -0.595
-8.613 -8.422 -0.176
-7.471 -6.125 -1.332
-5.153 -5.616 0.478
-4.593 -5.273 0.694
-5.887 -6.637 0.763
-9.953 -4.376 -5.593
-8.604 -8.429 -0.161
-9.282 -9.081 -0.187
-7.963 -8.970 1.020
-7.470 -6.125 -1.331
-8.937 -9.120 0.197
-8.613 -8.422 -0.176
-8.890 -8.400 -0.475
-7.676 -6.126 -1.538
-8.038 -8.480 0.457
-7.676 -6.126 -1.538
-7.676 -6.126 -1.538
-9.308 -9.077 -0.217
-4.593 -5.273 0.694
-6.965 -5.771 -1.181
-7.697 -6.122 -1.562
-5.779 -5.629 -0.135
-9.415 -8.391 -1.009
-8.609 -8.423 -0.172
-7.470 -6.125 -1.331
-8.609 -8.423 -0.171
-7.752 -5.968 -1.771
-8.888 -8.399 -0.474
-7.405 -5.623 -1.767
-7.471 -6.125 -1.332
-6.966 -5.771 -1.181
-7.471 -6.125 -1.332
-8.609 -8.423 -0.171
-7.427 -6.123 -1.292
-6.585 -5.844 -0.728
-7.729 -6.167 -1.548
-8.032 -8.481 0.463
-8.610 -8.423 -0.172
-8.038 -8.483 0.458
-7.470 -6.125 -1.331
-8.039 -8.483 0.457
-5.151 -5.789 0.653
-7.592 -6.189 -1.390
-6.013 -5.897 -0.101
-8.610 -8.423 -0.172
-7.470 -6.125 -1.331
-7.470 -6.125 -1.331
-8.931 -9.122 0.205
-7.606 -6.200 -1.394
-7.470 -6.125 -1.331
-7.715 -6.108 -1.594
-7.468 -6.125 -1.330
-9.290 -9.079 -0.197
-7.427 -6.123 -1.291
-6.585 -5.844 -0.727
-7.469 -6.126 -1.331
-8.605 -8.421 -0.169
-8.931 -9.121 0.204
-7.471 -6.125 -1.333
-5.779 -5.629 -0.136
-9.290 -9.079 -0.197
-8.032 -8.480 0.462
-7.404 -5.624 -1.765
-7.929 -8.970 1.054
-8.015 -8.480 0.479
-6.965 -5.771 -1.181
-9.475 -9.038 -0.424
-6.586 -5.844 -0.728
-7.471 -6.125 -1.332
-8.034 -8.481 0.461
-5.100 -5.828 0.743
-7.937 -8.969 1.045
-7.433 -8.684 1.266
-8.930 -9.120 0.204
-6.030 -5.893 -0.122
-8.034 -8.481 0.461
-6.594 -5.906 -0.674
-5.733 -5.635 -0.084
-7.753 -5.968 -1.772
-7.415 -5.645 -1.755
-7.925 -8.967 1.056
-8.933 -9.119 0.199
-7.925 -8.967 1.056
-7.590 -6.190 -1.388
-6.013 -5.898 -0.101
-6.013 -5.898 -0.101
-7.404 -5.624 -1.765
-8.933 -9.118 0.199
-7.468 -6.125 -1.329
-5.886 -6.637 0.763
-6.565 -5.901 -0.650
-5.742 -5.634 -0.094
-5.742 -5.634 -0.094
-8.023 -8.479 0.470
-7.468 -6.125 -1.329
-8.605 -8.421 -0.169
-5.779 -5.629 -0.136
-7.471 -6.125 -1.333
-6.030 -5.893 -0.121
-8.035 -8.481 0.460
-7.471 -6.125 -1.333
-6.965 -5.771 -1.181
-7.730 -6.167 -1.550
-8.027 -8.479 0.466
-6.494 -6.214 -0.267
-7.731 -6.167 -1.551
-7.768 -6.023 -1.732
-7.731 -6.167 -1.551
-7.731 -6.167 -1.551
-7.731 -6.167 -1.551
-7.731 -6.167 -1.551
-5.996 -5.880 -0.104
-6.006 -5.832 -0.160
-7.731 -6.167 -1.551
-5.996 -5.880 -0.104
-7.731 -6.167 -1.551
-6.150 -5.591 -0.545
-7.731 -6.167 -1.551
-7.731 -6.167 -1.551
-7.731 -6.167 -1.551
-7.731 -6.167 -1.551
-7.080 -6.282 -0.784
-7.748 -6.156 -1.578
-6.138 -5.734 -0.389
-7.748 -6.156 -1.578
-7.610 -6.190 -1.408
-5.946 -6.167 0.235
-6.472 -6.215 -0.244
-7.768 -6.023 -1.732
-7.731 -6.167 -1.551
-7.679 -6.126 -1.541
-6.473 -6.215 -0.244
-5.947 -6.167 0.235
-7.753 -6.002 -1.738
-7.753 -6.002 -1.738
-6.674 -6.414 -0.249
-7.080 -6.282 -0.784
-7.731 -6.167 -1.551
-7.731 -6.167 -1.551
-7.080 -6.282 -0.784
-7.679 -6.126 -1.541
-7.731 -6.167 -1.551
-7.471 -6.125 -1.332
-7.471 -6.125 -1.332
-7.731 -6.167 -1.551
-6.616 -5.851 -0.752
-7.731 -6.167 -1.551
-6.150 -5.591 -0.545
-7.667 -6.068 -1.586
-7.753 -6.002 -1.738
-6.674 -6.414 -0.249
-6.149 -5.732 -0.403
-7.753 -6.002 -1.738
-5.946 -6.167 0.235
-7.679 -6.126 -1.541
-7.592 -6.190 -1.390
-6.917 -5.708 -1.194
-7.731 -6.167 -1.551
-6.917 -5.708 -1.194
-7.592 -6.190 -1.390
-6.616 -5.851 -0.751
-7.679 -6.126 -1.541
-7.768 -6.023 -1.732
-7.731 -6.167 -1.551
-7.768 -6.023 -1.732
-7.731 -6.167 -1.551
-7.748 -6.156 -1.578
-7.748 -6.156 -1.578
-7.748 -6.156 -1.578
-9.843 -4.432 -5.424
-7.608 -6.190 -1.406
-9.843 -4.432 -5.424
-6.158 -5.735 -0.409
-6.617 -6.350 -0.255
-5.998 -5.839 -0.145
-7.679 -6.126 -1.541
-6.151 -5.733 -0.404
-7.760 -5.975 -1.772
-7.768 -6.023 -1.732
-6.598 -5.858 -0.726
-9.843 -4.432 -5.425
-7.590 -6.190 -1.388
-9.843 -4.432 -5.424
-6.597 -5.858 -0.725
-6.794 -6.377 -0.405
-7.731 -6.167 -1.550
-7.731 -6.167 -1.550
-7.079 -6.282 -0.782
-7.766 -6.023 -1.730
-6.932 -5.776 -1.143
-7.731 -6.167 -1.550
-7.731 -6.167 -1.550
-7.731 -6.167 -1.550
-7.731 -6.167 -1.550
-6.138 -5.735 -0.390
-9.842 -4.432 -5.423
-6.614 -5.850 -0.750
-6.475 -6.216 -0.245
-7.766 -6.023 -1.730
-7.731 -6.167 -1.550
-7.610 -6.190 -1.408
-7.731 -6.167 -1.550
-9.388 -4.554 -4.846
-9.842 -4.432 -5.423
-7.766 -6.023 -1.730
-5.801 -5.670 -0.116
-9.842 -4.432 -5.423
-9.842 -4.432 -5.423
-6.158 -5.735 -0.409
-7.766 -6.023 -1.730
-7.766 -6.023 -1.730
-7.428 -5.681 -1.732
-7.731 -6.167 -1.550
-7.731 -6.167 -1.550
-7.758 -5.976 -1.769
-7.758 -5.976 -1.769
-9.842 -4.432 -5.423
-7.079 -6.282 -0.782
-7.766 -6.023 -1.730
-7.678 -6.126 -1.540
-9.388 -4.554 -4.846
-7.752 -6.002 -1.737
-6.479 -6.217 -0.248
-7.752 -6.002 -1.737
-7.766 -6.023 -1.730
-5.987 -5.876 -0.099
-9.377 -4.500 -4.891
-7.590 -6.190 -1.389
-6.829 -5.714 -1.100
-7.678 -6.126 -1.540
-9.842 -4.432 -5.423
-6.613 -5.918 -0.681
-9.842 -4.432 -5.423
-5.943 -6.168 0.239
-6.829 -5.715 -1.099
-7.678 -6.126 -1.540
-6.613 -5.918 -0.681
-7.592 -6.189 -1.390
-9.842 -4.432 -5.423
-9.842 -4.432 -5.423
-6.597 -5.859 -0.724
-6.496 -6.215 -0.268
-7.751 -6.003 -1.735
-7.079 -6.282 -0.782
-9.376 -4.500 -4.890
-7.610 -6.190 -1.408
-6.615 -5.851 -0.750
-7.758 -5.976 -1.769
-7.750 -6.115 -1.623
-6.792 -6.377 -0.404
-5.945 -6.168 0.237
-7.731 -6.167 -1.550
-7.591 -6.190 -1.390
-7.766 -6.023 -1.730
-7.731 -6.167 -1.550
-7.766 -6.023 -1.730
-7.744 -6.164 -1.566
-9.883 -4.424 -5.473
-6.541 -5.732 -0.808
-7.744 -6.164 -1.566
-7.763 -6.000 -1.750
-7.763 -6.000 -1.750
-7.514 -6.123 -1.378
-7.602 -6.188 -1.403
-5.932 -6.163 0.246
-6.824 -6.378 -0.434
-7.603 -6.187 -1.404
-9.449 -4.519 -4.942
-7.781 -6.020 -1.748
-6.936 -5.775 -1.148
-5.957 -6.167 0.224
-7.699 -6.122 -1.564
-9.886 -4.423 -5.477
-9.886 -4.423 -5.477
-7.692 -6.061 -1.618
-6.585 -6.054 -0.517
-7.699 -6.122 -1.564
-7.487 -6.121 -1.352
-9.448 -4.520 -4.941
-7.745 -6.164 -1.567
-6.138 -5.734 -0.390
-5.039 -5.430 0.404
-9.886 -4.423 -5.477
-7.600 -6.188 -1.400
-7.512 -6.123 -1.376