-12.788 -10.646 -2.087
-12.490 -10.300 -2.097
-12.788 -10.646 -2.087
-10.931 -10.508 -0.368
-10.794 -10.567 -0.247
-12.995 -10.369 -2.598
-12.548 -10.317 -2.148
-11.035 -10.500 -0.477
-11.823 -10.779 -0.996
-10.211 -10.891 0.709
-15.465 -15.346 -0.251
-11.739 -10.597 -1.150
-9.536 -10.565 1.092
-10.068 -10.508 0.517
-12.065 -10.334 -1.625
-12.556 -10.329 -2.139
-11.035 -10.500 -0.478
-12.547 -10.317 -2.147
-10.934 -10.512 -0.369
-11.780 -10.695 -1.034
-10.738 -10.467 -0.334
-11.035 -10.500 -0.478
-15.465 -15.354 -0.246
-10.934 -10.502 -0.375
-11.122 -10.517 -0.621
-11.779 -10.694 -1.027
-10.211 -10.892 0.709
-11.779 -10.692 -1.037
-10.933 -10.509 -0.369
-10.347 -10.121 -0.249
-11.683 -10.785 -0.837
-10.225 -10.878 0.682
-12.081 -10.331 -1.644
-12.812 -10.643 -2.114
-10.940 -10.507 -0.378
-10.810 -10.543 -0.284
-10.068 -10.509 0.518
-11.744 -10.709 -1.007
-10.212 -10.892 0.708
-10.516 -10.894 0.406
-10.137 -10.349 0.022
-9.606 -10.707 1.083
-11.447 -9.714 -1.631
-10.895 -9.657 -1.222
-11.518 -10.733 -0.703
-11.848 -10.788 -0.999
-10.397 -10.887 0.510
-12.545 -10.318 -2.144
-12.545 -10.318 -2.144
-12.812 -10.644 -2.114
-12.546 -10.318 -2.146
-10.077 -10.509 0.508
-10.216 -10.890 0.702
-10.866 -10.847 -0.142
-11.785 -10.692 -1.046
-10.074 -10.509 0.511
-11.335 -10.748 -0.565
-10.405 -10.892 0.516
-10.911 -10.569 -0.313
-10.215 -10.891 0.704
-10.074 -10.508 0.511
-10.941 -10.503 -0.380
-10.421 -10.160 -0.291
-10.866 -10.847 -0.141
-11.424 -9.692 -1.630
-11.424 -9.694 -1.627
-11.389 -10.721 -0.618
-10.941 -10.506 -0.380
-10.940 -10.520 -0.367
-10.809 -10.542 -0.283
-10.421 -10.153 -0.296
-11.849 -10.794 -0.996
-10.685 -9.535 -1.040
-10.934 -9.656 -1.259
-10.633 -9.553 -0.966
-10.401 -10.893 0.519
-11.105 -10.666 -0.419
-11.632 -10.697 -0.879
-10.845 -10.847 -0.112
-10.810 -10.544 -0.284
-10.269 -10.326 0.134
-10.398 -10.888 0.527
-11.162 -10.494 -0.613
-10.811 -10.543 -0.285
-10.845 -10.847 -0.113
-10.211 -10.893 0.709
-11.846 -10.794 -0.991
-10.802 -10.567 -0.254
-10.802 -10.565 -0.255
-9.077 -10.399 1.192
-11.324 -10.754 -0.548
-12.064 -10.334 -1.624
-10.874 -10.850 -0.144
-11.921 -10.789 -1.071
-10.004 -9.649 -0.523
-11.667 -10.797 -0.809
-10.940 -10.511 -0.375
-12.800 -11.993 -0.725
-10.212 -10.890 0.706
-9.250 -10.681 1.395
-11.581 -10.218 -1.203
-10.939 -10.513 -0.377
-11.330 -10.732 -0.581
-10.617 -11.002 0.407
-10.137 -10.683 0.626
-11.775 -10.733 -1.016
-8.921 -9.162 0.321
-11.103 -10.525 -0.580
-10.768 -10.487 -0.169
-14.204 -8.538 -6.022
-10.911 -10.530 -0.328
-9.978 -10.353 0.175
-12.996 -10.369 -2.598
-10.519 -10.893 0.403
-11.670 -10.796 -0.813
-9.246 -10.626 1.379
-10.960 -10.535 -0.367
-10.125 -10.316 -0.027
-10.777 -10.539 -0.134
-9.701 -10.563 0.929
-10.780 -10.496 -0.172
-10.406 -10.890 0.513
-11.163 -10.491 -0.614
-10.420 -10.156 -0.293
-11.535 -10.641 -0.864
-9.987 -10.342 0.369
-11.392 -10.712 -0.624
-10.809 -10.540 -0.282
-10.809 -10.540 -0.282
-10.792 -10.568 -0.240
-10.617 -11.009 0.410
-10.544 -10.856 0.175
-10.823 -10.558 -0.296
-10.215 -10.890 0.703
-11.163 -10.490 -0.614
-11.231 -10.709 -0.467
-14.884 -15.440 0.411
-9.260 -10.681 1.403
-10.406 -10.887 0.511
-10.420 -10.155 -0.293
-11.230 -10.716 -0.462
-10.130 -10.344 0.015
-9.541 -10.564 1.087
-10.216 -10.891 0.703
-9.266 -10.685 1.395
-9.541 -10.564 1.087
-10.419 -10.154 -0.294
-10.405 -10.891 0.514
-11.063 -10.560 -0.467
-11.063 -10.497 -0.510
-9.584 -9.531 -0.047
-9.998 -9.649 -0.512
-11.173 -10.690 -0.418
-10.809 -10.541 -0.281
-11.204 -10.786 -0.369
-9.539 -10.565 1.090
-10.073 -10.510 0.513
-11.100 -10.526 -0.577
-10.773 -10.551 -0.265
-11.842 -10.798 -0.991
-10.732 -11.665 0.927
-11.043 -10.499 -0.487
-8.122 -8.639 0.609
-14.883 -15.381 0.397
-10.135 -10.356 0.009
-9.942 -10.358 0.200
-11.163 -10.493 -0.611
-11.672 -10.794 -0.818
-10.797 -10.567 -0.245
-11.204 -10.791 -0.369
-10.807 -10.542 -0.280
-11.234 -10.712 -0.466
-9.584 -9.530 -0.047
-10.773 -10.482 -0.178
-8.122 -8.639 0.609
-11.163 -10.491 -0.614
-10.886 -10.850 -0.161
-11.163 -10.490 -0.614
-11.032 -10.558 -0.428
-11.100 -10.658 -0.403
-10.075 -10.508 0.509
-10.215 -10.886 0.699
-11.804 -10.748 -1.020
-10.778 -10.497 -0.169
-14.886 -15.412 0.380
-8.122 -8.639 0.609
-8.122 -8.639 0.610
-10.603 -10.204 -0.316
-12.275 -12.324 0.146
-10.868 -10.500 -0.257
-10.406 -10.889 0.514
-8.122 -8.639 0.609
-9.998 -9.638 -0.513
-8.122 -8.639 0.609
-10.941 -10.505 -0.382
-11.672 -10.795 -0.814
-14.885 -15.398 0.369
-10.406 -10.890 0.512
-9.542 -10.565 1.086
-11.390 -10.709 -0.624
-10.215 -10.890 0.703
-9.542 -10.565 1.087
-11.163 -10.491 -0.613
-10.864 -10.847 -0.139
-8.173 -8.691 0.612
-11.198 -10.699 -0.456
-10.134 -10.347 -0.004
-10.247 -10.510 0.342
-9.264 -10.683 1.402
-9.749 -9.760 0.070
-10.215 -10.884 0.701
-11.032 -10.516 -0.473
-10.792 -10.570 -0.244
-11.018 -10.542 -0.433
-10.961 -10.849 -0.235
-11.163 -10.493 -0.611
-11.064 -10.498 -0.508
-9.604 -10.706 1.083
-10.773 -10.551 -0.265
-9.933 -9.566 -0.276
-11.418 -10.277 -0.992
-10.802 -10.593 -0.137
-10.876 -10.851 -0.148
-11.061 -10.491 -0.511
-10.876 -10.851 -0.147
-11.831 -10.690 -1.105
-11.162 -10.493 -0.610
-9.583 -9.531 -0.045
-14.276 -14.454 0.280
-10.798 -10.571 -0.242
-11.773 -10.690 -1.025
-10.855 -10.849 -0.125
-10.244 -10.512 0.348
-11.098 -10.529 -0.570
-9.927 -11.782 1.917
-10.797 -10.571 -0.242
-11.665 -10.798 -0.806
-11.782 -10.702 -1.029
-9.266 -10.680 1.393
-11.665 -10.797 -0.807
-9.538 -10.567 1.093
-9.938 -9.574 -0.272
-9.937 -10.357 0.212
-11.021 -10.730 -0.283
-10.069 -10.511 0.518
-10.939 -10.505 -0.378
-10.876 -10.851 -0.148
-14.307 -8.553 -6.161
-9.588 -9.530 -0.052
-10.577 -9.540 -0.923
-10.841 -10.848 -0.107
-10.808 -10.542 -0.280
-10.743 -10.423 -0.201
-16.164 -16.344 0.272
-11.028 -10.480 -0.518
-11.061 -10.501 -0.502
-10.145 -10.356 0.000
-10.879 -10.536 -0.360
-11.060 -10.494 -0.504
-10.751 -10.475 -0.162
-9.537 -10.566 1.093
-11.662 -10.799 -0.802
-14.779 -15.549 0.574
-10.772 -10.552 -0.264
-10.741 -10.496 -0.133
-11.027 -10.565 -0.390
-10.346 -10.128 -0.247
-10.192 -9.785 -0.333
-10.240 -10.512 0.352
-9.188 -10.514 0.782
-11.246 -11.767 0.563
-10.796 -10.568 -0.243
-10.143 -10.356 -0.012
-10.187 -10.470 0.397
-9.877 -9.983 -0.036
-11.032 -10.509 -0.484
-10.100 -9.653 -0.620
-11.661 -10.799 -0.801
-10.067 -10.510 0.521
-11.627 -10.702 -0.869
-10.750 -10.462 -0.172
-10.399 -10.892 0.523
-11.660 -10.800 -0.799
-11.320 -10.770 -0.532
-10.208 -10.895 0.715
-10.862 -10.851 -0.128
-10.209 -10.892 0.711
-10.798 -10.567 -0.247
-11.127 -10.519 -0.628
-11.732 -10.600 -1.136
-9.938 -9.574 -0.271
-10.788 -10.570 -0.232
-11.062 -10.503 -0.503
-11.384 -10.709 -0.615
-9.539 -10.567 1.092
-9.908 -10.284 0.524
-9.583 -9.531 -0.045
-10.769 -10.552 -0.258
-10.337 -10.399 -0.072
-9.924 -10.373 0.305
-11.200 -10.772 -0.384
-11.098 -10.528 -0.573
-10.400 -10.895 0.525
-9.492 -11.168 1.734
-10.851 -10.383 -0.354
-11.098 -10.527 -0.571
-9.583 -9.531 -0.045
-9.938 -9.586 -0.266
-8.961 -9.227 0.347
-10.133 -10.364 0.009
-11.667 -10.797 -0.808
-9.989 -11.642 1.694
-10.823 -10.546 -0.302
-10.803 -10.543 -0.273
-12.282 -12.309 0.123
-10.002 -11.919 2.009
-11.387 -10.707 -0.623
-11.062 -10.503 -0.501
-9.508 -10.280 0.919
-10.061 -9.513 -0.662
-9.938 -9.583 -0.264
-10.856 -10.848 -0.127
-10.805 -10.542 -0.275
-10.717 -10.469 -0.207
-10.877 -10.852 -0.149
-11.062 -10.500 -0.505
-11.225 -10.706 -0.459
-13.541 -14.860 1.385
-7.576 -9.306 1.798
-10.755 -10.461 -0.178
-14.822 -15.375 0.438
-10.755 -10.462 -0.178
-10.789 -10.570 -0.234
-10.789 -10.568 -0.235
-11.063 -10.500 -0.507
-10.805 -10.542 -0.275
-10.934 -10.534 -0.390
-9.570 -9.040 -0.530
-14.743 -15.349 0.479
-9.682 -10.849 1.219
-14.805 -15.545 0.512
-10.244 -10.512 0.348
-10.856 -10.849 -0.127
-11.246 -11.770 0.566
-11.841 -10.780 -0.996
-10.070 -10.511 0.518
-10.792 -10.571 -0.236
-11.846 -10.795 -0.990
-10.211 -10.893 0.709
-11.415 -10.739 -0.654
-8.004 -8.642 0.730
-8.121 -8.642 0.613
-11.062 -10.504 -0.503
-8.121 -8.643 0.614
-11.446 -10.714 -0.682
-10.803 -10.543 -0.273
-9.941 -10.361 0.208
-9.539 -10.567 1.093
-11.229 -10.715 -0.460
-11.121 -10.520 -0.617
-8.959 -9.227 0.346
-14.808 -15.430 0.402
-11.670 -10.794 -0.814
-10.214 -10.887 0.702
-9.874 -9.868 0.007
-10.213 -10.891 0.706
-10.731 -11.666 0.927
-8.005 -8.639 0.725
-10.979 -10.563 -0.384
-8.005 -8.641 0.728
-11.061 -10.496 -0.509
-11.666 -10.797 -0.808
-10.803 -10.543 -0.273
-10.793 -10.571 -0.237
-14.831 -15.396 0.424
-10.856 -10.848 -0.128
-9.166 -10.379 1.140
-11.121 -10.524 -0.614
-10.101 -9.611 -0.626
-10.789 -10.569 -0.233
-11.062 -10.498 -0.507
-10.877 -10.852 -0.149
-9.938 -9.568 -0.274
-14.826 -15.426 0.458
-10.542 -10.860 0.187
-9.091 -10.399 1.183
-8.004 -8.643 0.731
-10.133 -10.362 0.021
-8.004 -8.643 0.731
-10.212 -10.893 0.709
-8.961 -9.225 0.345
-10.134 -10.356 0.012
-11.818 -10.738 -1.034
-10.072 -10.510 0.515
-9.309 -10.656 1.318
-9.789 -9.983 0.053
-11.162 -10.493 -0.609
-9.540 -10.566 1.089
-10.803 -10.544 -0.272
-8.121 -8.641 0.612
-10.731 -11.675 0.936
-10.940 -10.510 -0.375
-10.213 -10.891 0.707
-9.604 -10.707 1.084
-10.766 -10.381 -0.347
-10.601 -10.476 -0.118
-9.585 -10.225 0.667
-9.263 -10.680 1.385
-10.402 -10.892 0.519
-11.246 -11.761 0.561
-10.070 -10.511 0.518
-10.538 -10.860 0.189
-10.134 -10.356 0.019
-9.539 -10.567 1.092
-8.143 -9.150 1.095
-10.749 -10.462 -0.171
-14.831 -15.424 0.437
-11.779 -10.698 -1.033
-10.909 -10.557 -0.312
-11.198 -10.799 -0.349
-11.245 -11.765 0.561
-9.937 -9.582 -0.263
-14.819 -15.293 0.354
-11.119 -10.596 -0.410
-10.877 -10.852 -0.149
-11.062 -10.501 -0.504
-9.807 -11.467 1.728
-10.755 -10.462 -0.178
-11.246 -11.771 0.565
-10.856 -10.848 -0.127
-10.804 -10.542 -0.275
-11.663 -10.798 -0.803
-9.922 -9.586 -0.257
-10.150 -10.637 0.571
-10.805 -10.542 -0.275
-11.226 -10.710 -0.458
-10.914 -10.523 -0.327
-9.942 -9.571 -0.280
-14.830 -15.384 0.413
-10.877 -10.852 -0.149
-11.251 -11.779 0.570
-11.719 -10.682 -0.943
-15.152 -15.414 0.119
-10.134 -10.346 -0.023
-10.069 -10.510 0.517
-11.918 -10.787 -1.069
-9.854 -9.591 -0.175
-9.854 -9.602 -0.166
-10.855 -10.848 -0.126
-11.472 -10.819 -0.601
-10.211 -10.893 0.710
-10.537 -10.860 0.190
-10.537 -10.860 0.190
-12.125 -12.313 0.287
-14.830 -15.396 0.423
-11.121 -10.525 -0.601
-9.253 -10.658 1.391
-10.802 -10.545 -0.272
-13.998 -15.214 1.263
-9.158 -10.520 1.349
-10.209 -10.895 0.713
-10.137 -10.357 0.004
-10.212 -10.892 0.709
-10.400 -10.890 0.518
-10.068 -10.510 0.519
-10.068 -10.510 0.519
-11.664 -10.797 -0.805
-10.770 -10.552 -0.260
-10.731 -11.666 0.928
-11.246 -11.775 0.571
-11.061 -10.503 -0.503
-9.582 -9.531 -0.044
-14.829 -15.398 0.426
-9.861 -9.599 -0.176
-9.509 -10.212 0.730
-10.608 -11.001 0.418
-10.731 -11.665 0.927
-10.541 -10.862 0.189
-10.212 -10.890 0.706
-10.925 -10.539 -0.338
-10.791 -10.568 -0.237
-11.246 -11.767 0.564
-10.212 -10.891 0.707
-9.934 -9.545 -0.287
-10.877 -10.851 -0.148
-10.804 -10.543 -0.275
-10.715 -10.353 -0.331
-9.697 -10.565 0.934
-10.211 -10.891 0.708
-10.135 -10.368 0.019
-10.152 -10.624 0.387
-10.804 -10.544 -0.274
-10.066 -10.511 0.522
-11.212 -10.697 -0.471
-9.935 -9.573 -0.272
-15.175 -15.224 0.105
-10.393 -10.884 0.504
-12.291 -12.211 -0.006
-14.820 -15.413 0.389
-11.223 -10.728 -0.442
-10.490 -10.222 -0.233
-10.951 -10.850 -0.222
-11.246 -11.767 0.564
-10.127 -10.311 -0.037
-10.804 -10.543 -0.276
-9.830 -9.560 -0.186
-10.401 -10.892 0.520
-16.172 -16.394 0.314
-9.939 -10.052 -0.286
-10.613 -11.011 0.417
-9.582 -9.531 -0.045
-9.941 -9.574 -0.274
-10.731 -11.665 0.928
-10.072 -10.510 0.515
-16.171 -16.403 0.321
-10.855 -10.847 -0.127
-9.582 -9.531 -0.045
-10.401 -10.889 0.514
-8.921 -9.168 0.327
-11.409 -10.765 -0.630
-11.410 -10.784 -0.612
-10.210 -10.893 0.712
-10.136 -10.339 0.023
-15.910 -16.404 0.585
-10.747 -10.498 -0.137
-15.249 -15.244 0.065
-9.504 -10.279 0.922
-10.001 -11.921 2.008
-11.245 -11.767 0.564
-9.582 -9.531 -0.045
-10.418 -10.158 -0.288
-9.872 -9.581 -0.199
-10.696 -10.520 -0.246
-14.824 -15.467 0.454
-10.788 -10.559 -0.239
-9.536 -10.568 1.096
-11.062 -10.494 -0.510
-10.400 -10.889 0.517
-10.395 -10.891 0.533
-9.939 -9.576 -0.271
-10.616 -11.004 0.411
-10.145 -10.362 0.007
-10.875 -10.852 -0.145
-9.582 -9.531 -0.044
-10.766 -11.490 0.731
-11.223 -10.706 -0.462
-9.219 -10.795 1.622
-10.853 -10.849 -0.123
-9.503 -10.279 0.923
-10.936 -10.508 -0.371
-13.390 -12.991 -0.347
-11.245 -11.767 0.564
-9.939 -9.574 -0.275
-14.486 -15.494 0.858
-10.104 -9.616 -0.629
-11.195 -10.801 -0.345
-10.210 -10.892 0.710
-9.582 -9.531 -0.044
-10.853 -10.849 -0.124
-10.805 -10.542 -0.276
-10.805 -10.542 -0.276
-16.172 -16.395 0.314
-10.208 -10.894 0.715
-11.476 -10.792 -0.619
-10.727 -11.657 0.941
-14.830 -15.395 0.423
-11.444 -10.716 -0.678
-9.519 -10.080 0.583
-10.731 -11.664 0.926
-15.912 -16.399 0.580
-10.071 -10.511 0.517
-11.401 -10.811 -0.537
-11.215 -10.732 -0.440
-10.806 -10.541 -0.277
-10.806 -10.542 -0.277
-12.330 -12.196 -0.041
-14.684 -15.843 0.735
-9.521 -10.087 0.589
-9.917 -10.331 0.231
-9.917 -10.369 0.306
-10.157 -10.611 0.326
-9.582 -9.531 -0.045
-9.836 -10.862 1.073
-10.210 -10.893 0.710
-12.121 -12.311 0.289
-14.106 -15.667 1.080
-11.187 -10.675 -0.445
-9.812 -10.283 0.619
-16.162 -15.340 -0.994
-15.465 -15.260 -0.156
-16.572 -16.686 0.049
-15.465 -15.260 -0.156
-23.300 -15.962 -7.204
-22.130 -14.856 -7.749
-23.141 -15.913 -7.089
-16.012 -16.500 0.581
-15.986 -17.222 0.926
-16.261 -16.492 0.318
-23.140 -15.913 -7.088
-15.985 -17.198 0.926
-16.004 -16.489 0.577
-16.007 -15.402 -0.789
-14.129 -15.012 0.945
-16.000 -16.488 0.580
-15.986 -17.212 0.927
-15.441 -15.324 -0.070
-14.254 -14.290 0.114
-15.073 -15.908 0.944
-15.364 -16.551 1.287
-13.582 -13.740 0.059
-15.268 -16.554 1.386
-16.138 -17.210 0.772
-16.000 -17.222 0.918
-16.263 -16.485 0.309
-14.255 -14.290 0.113
-16.263 -16.486 0.310
-14.125 -15.009 0.948
-13.666 -14.510 0.950
-16.405 -16.729 0.261
-16.010 -16.478 0.563
-15.472 -15.323 -0.102
-16.255 -16.474 0.308
-16.005 -16.484 0.572
-16.005 -16.483 0.570
-16.392 -16.734 0.271
-14.128 -15.276 1.192
-14.255 -14.289 0.111
-15.442 -15.324 -0.071
-13.105 -14.257 1.128
-16.001 -16.482 0.572
-16.403 -16.443 0.118
-16.005 -16.484 0.571
-16.263 -16.484 0.308
-14.130 -15.008 0.938
-16.067 -17.224 0.851
-14.706 -15.535 0.684
-15.472 -15.323 -0.102
-15.442 -15.324 -0.071
-13.583 -13.740 0.058
-14.116 -15.276 1.205
-15.365 -16.550 1.285
-15.472 -15.323 -0.102
-16.255 -16.475 0.309
-15.363 -16.512 1.251
-16.405 -16.735 0.260
-15.442 -15.324 -0.071
-16.000 -16.482 0.574
-13.583 -13.740 0.058
-15.442 -15.324 -0.071
-16.254 -16.475 0.309
-15.441 -15.324 -0.071
-14.254 -14.290 0.114
-16.004 -16.486 0.573
-16.004 -16.484 0.572
-15.986 -17.210 0.926
-16.005 -16.485 0.572
-16.005 -16.484 0.572
-14.827 -14.328 -0.463
-16.381 -16.740 0.277
-16.255 -16.475 0.308
-14.662 -15.482 0.689
-16.078 -16.386 0.398
-15.340 -15.236 -0.029
-15.493 -15.257 -0.187
-16.559 -16.686 0.061
-16.559 -16.684 0.060
-15.461 -15.259 -0.154
-15.521 -15.251 -0.222
-15.494 -15.251 -0.197
-16.564 -16.685 0.049
-14.239 -14.246 0.084
-16.083 -16.379 0.386
-16.340 -16.369 0.120
-15.494 -15.251 -0.196
-16.085 -16.382 0.386
-16.093 -16.393 0.391
-15.093 -14.389 -0.576
-16.344 -16.381 0.127
-13.612 -13.692 -0.020
-14.142 -15.200 1.107
-16.093 -16.392 0.391
-15.531 -16.756 1.267
-12.886 -13.215 0.365
-15.495 -15.253 -0.195
-15.529 -16.700 1.241
-15.495 -15.253 -0.195
-16.179 -16.414 0.326
-15.495 -15.254 -0.195
-16.057 -16.426 0.462
-15.495 -15.253 -0.195
-15.386 -15.241 -0.073
-15.531 -16.747 1.271
-16.054 -16.424 0.464
-15.495 -15.253 -0.195
-14.349 -15.482 1.184
-16.303 -16.405 0.193
-16.303 -16.406 0.193
-14.557 -15.685 1.088
-15.495 -15.253 -0.195
-16.047 -16.415 0.460
-16.303 -16.406 0.193
-16.310 -16.416 0.196
-15.385 -15.240 -0.073
-16.161 -17.298 0.414
-15.526 -15.253 -0.227
-14.627 -14.725 0.188
-16.340 -16.382 0.124
-16.205 -17.279 0.372
-16.309 -16.396 0.177
-16.619 -16.682 -0.004
-14.773 -15.747 0.699
-16.315 -16.407 0.181
-14.911 -14.257 -0.618
-16.594 -16.683 0.020
-16.050 -16.393 0.435
-16.185 -16.405 0.310
-16.162 -17.293 0.415
-13.808 -13.732 -0.005
-13.252 -14.366 1.165
-14.279 -14.246 0.045
-15.495 -15.253 -0.196
-15.521 -17.413 1.025
-15.523 -15.252 -0.222
-16.605 -16.676 0.011
-14.603 -15.739 1.010
-16.059 -16.415 0.449
-13.619 -13.693 -0.028
-15.142 -14.394 -0.621
-16.050 -16.405 0.447
-16.185 -16.405 0.311
-13.297 -14.363 1.113
-15.527 -15.252 -0.229
-15.020 -15.402 0.236
-16.315 -16.407 0.181
-16.309 -16.399 0.180
-16.576 -16.678 0.044
-15.527 -15.251 -0.229
-15.321 -15.463 0.199
-13.646 -13.692 -0.057
-16.186 -16.405 0.309
-16.186 -16.405 0.310
-16.054 -16.406 0.444
-16.063 -16.417 0.448
-16.062 -16.422 0.450
-16.054 -16.406 0.444
-16.185 -16.405 0.310
-15.095 -14.392 -0.575
-16.185 -16.406 0.311
-14.573 -15.607 1.124
-15.387 -15.241 -0.075
-15.142 -14.395 -0.621
-16.050 -16.405 0.447
-16.107 -16.403 0.387
-16.315 -16.408 0.182
-16.120 -16.417 0.389
-16.063 -16.418 0.448
-16.315 -16.408 0.182
-16.054 -16.402 0.440
-13.646 -13.691 -0.057
-16.054 -16.406 0.444
-13.651 -13.692 -0.062
-16.309 -16.396 0.177
-16.111 -16.405 0.385
-13.651 -13.697 -0.055
-16.051 -16.405 0.445
-13.619 -13.693 -0.028
-16.050 -16.404 0.445
-13.651 -13.693 -0.062
-15.496 -15.252 -0.197
-16.059 -16.416 0.449
-15.997 -16.191 0.263
-15.532 -16.722 1.254
-16.059 -16.417 0.450
-16.185 -16.405 0.310
-13.618 -13.694 -0.025
-16.175 -17.302 0.409
-16.315 -16.408 0.183
-16.309 -16.396 0.178
-14.909 -14.293 -0.586
-16.309 -16.397 0.178
-14.088 -14.240 0.233
-15.525 -15.252 -0.226
-16.308 -16.399 0.181
-16.184 -16.406 0.312
-15.522 -16.674 1.224
-13.618 -13.694 -0.026
-16.184 -17.269 0.404
-13.651 -13.692 -0.061
-16.186 -16.404 0.309
-15.413 -15.238 -0.102
-15.025 -14.382 -0.519
-16.186 -16.404 0.309
-16.557 -16.685 0.065
-15.418 -16.702 1.358
-15.417 -16.697 1.356
-13.619 -13.694 -0.027
-15.987 -16.218 0.326
-14.912 -14.253 -0.617
-15.322 -15.463 0.199
-13.619 -13.693 -0.027
-14.886 -15.405 0.366
-15.522 -17.411 1.026
-16.315 -16.407 0.181
-16.206 -17.306 0.355
-13.619 -13.693 -0.027
-14.923 -15.570 0.716
-15.789 -16.493 0.795
-15.523 -15.252 -0.222
-16.614 -16.686 -0.001
-16.185 -16.405 0.310
-16.315 -16.407 0.181
-15.410 -16.736 1.406
-15.321 -15.463 0.199
-14.274 -14.229 0.027
-15.588 -17.409 0.952
-16.045 -16.418 0.461
-16.566 -16.682 0.051
-15.414 -15.239 -0.102
-14.885 -15.396 0.371
-14.845 -14.382 -0.452
-14.279 -14.246 0.044
-14.078 -15.100 1.097
-16.051 -16.405 0.445
-16.051 -16.405 0.445
-16.315 -16.407 0.181
-13.619 -13.693 -0.027
-15.524 -17.324 1.060
-16.315 -16.407 0.181
-14.490 -15.609 1.203
-16.162 -17.297 0.413
-15.413 -15.239 -0.101
-15.416 -15.250 -0.121
-13.252 -14.367 1.169
-14.030 -13.798 -0.162
-14.885 -15.402 0.370
-16.594 -16.681 0.023
-15.588 -17.387 0.957
-16.051 -16.405 0.446
-15.026 -14.384 -0.520
-16.049 -16.394 0.431
-16.315 -16.407 0.181
-14.279 -14.246 0.045
-16.054 -16.405 0.443
-14.855 -14.380 -0.465
-15.077 -15.033 0.080
-14.851 -14.255 -0.556
-12.811 -13.993 1.206
-13.618 -13.693 -0.026
-16.594 -16.682 0.016
-16.049 -16.251 0.293
-16.184 -16.405 0.312
-15.386 -15.239 -0.074
-15.413 -15.239 -0.101
-14.141 -14.941 0.867
-13.619 -13.693 -0.027
-14.102 -14.374 0.227
-15.496 -15.252 -0.196
-15.017 -15.428 0.255
-14.885 -15.387 0.348
-15.417 -16.735 1.382
-15.496 -15.253 -0.197
-16.185 -16.404 0.310
-16.185 -16.405 0.311
-16.162 -17.298 0.413
-13.619 -13.693 -0.028
-16.206 -17.306 0.356
-13.619 -13.695 -0.026
-16.315 -16.407 0.181
-13.601 -13.365 -0.111
-14.141 -14.944 0.869
-15.929 -16.415 0.579
-16.481 -16.683 0.140
-15.926 -16.414 0.581
-16.619 -16.682 -0.004
-15.386 -15.239 -0.075
-15.306 -15.236 0.003
-14.279 -14.246 0.045
-16.243 -16.305 0.117
-15.588 -17.401 0.955
-14.209 -14.166 0.032
-12.184 -12.417 0.304
-16.472 -16.683 0.147
-14.230 -14.250 0.098
-16.603 -16.682 0.011
-16.097 -16.293 0.276
-15.373 -15.228 -0.070
-14.021 -15.184 1.213
-16.592 -16.682 0.023
-13.297 -14.371 1.116
-16.172 -17.296 0.409
-14.283 -14.250 0.044
-13.611 -13.691 -0.021
-13.297 -14.368 1.117
-14.780 -14.749 -0.086
-14.239 -14.247 0.085
-15.410 -15.249 -0.113
-15.754 -16.793 0.390
-14.089 -15.109 1.095
-13.612 -13.692 -0.021
-16.479 -16.685 0.141
-13.644 -13.690 -0.060
-15.418 -16.702 1.356
-16.083 -16.379 0.386
-16.083 -16.379 0.386
-13.612 -13.692 -0.022
-16.565 -16.674 0.049
-15.025 -14.387 -0.520
-14.508 -15.488 0.835
-16.204 -17.295 0.367
-16.204 -17.309 0.351
-15.494 -15.251 -0.197
-14.267 -14.247 0.071
-16.215 -16.380 0.256
-15.414 -16.649 1.315
-13.612 -13.692 -0.021
-16.082 -16.380 0.388
-13.612 -13.692 -0.020
-14.989 -14.385 -0.478
-16.480 -16.541 0.084
-16.082 -16.380 0.388
-13.612 -13.692 -0.021
-16.082 -16.377 0.385
-14.047 -14.242 0.275
-16.139 -16.380 0.330
-15.523 -16.626 1.186
-15.335 -16.483 1.225
-16.082 -16.380 0.387
-15.958 -16.389 0.522
-15.383 -15.243 -0.076
-16.215 -16.379 0.254
-15.961 -16.390 0.520
-14.472 -15.768 1.174
-16.093 -16.392 0.391
-13.798 -13.733 0.006
-16.173 -17.298 0.410
-13.612 -13.692 -0.021
-13.612 -13.692 -0.021
-16.609 -16.669 0.002
-15.961 -16.390 0.519
-16.099 -16.254 0.240
-14.240 -14.246 0.084
-16.143 -16.382 0.328
-11.093 -12.838 1.831
-16.085 -16.381 0.385
-14.198 -14.208 0.073
-14.647 -15.454 0.679
-13.612 -13.692 -0.020
-16.600 -16.666 0.019
-14.645 -15.502 0.722
-16.082 -16.350 0.357
-16.121 -16.412 0.387
-16.086 -16.381 0.385
-13.612 -13.692 -0.020
-16.230 -16.304 0.055
-15.384 -15.237 -0.074
-15.397 -16.662 1.342
-15.412 -15.237 -0.102
-14.240 -14.247 0.084
-16.215 -16.379 0.255
-16.173 -17.299 0.410
-15.410 -15.249 -0.113
-14.644 -15.447 0.675
-13.612 -13.534 0.058
-13.613 -13.692 -0.022
-16.173 -17.300 0.409
-16.204 -17.276 0.371
-13.426 -13.687 0.301
-14.143 -15.192 1.098
-14.241 -14.247 0.083
-13.613 -13.692 -0.022
-16.618 -16.682 -0.003
-14.285 -14.249 0.041
-16.145 -16.395 0.340
-16.604 -16.664 0.001
-16.080 -16.378 0.387
-16.589 -16.672 0.037
-16.563 -16.671 0.048
-16.205 -17.306 0.354
-15.412 -15.236 -0.102
-14.504 -15.492 0.834
-14.285 -14.250 0.042
-14.285 -14.249 0.042
-15.412 -15.236 -0.102
-16.126 -16.332 0.287
-16.566 -16.682 0.050
-16.604 -16.680 0.012
-14.435 -14.980 0.598
-12.774 -13.997 1.266
-14.089 -15.130 1.112
-14.932 -14.945 -0.076
-15.026 -14.380 -0.524
-15.497 -17.434 1.036
-13.613 -13.692 -0.022
-16.420 -16.579 0.057
-16.578 -16.681 0.037
-15.955 -16.387 0.522
-14.846 -14.377 -0.456
-15.958 -16.389 0.522
-15.024 -14.384 -0.511
-14.258 -15.223 1.001
-16.605 -16.682 0.009
-16.056 -16.281 0.327
-13.612 -13.692 -0.022
-15.384 -15.237 -0.075
-15.321 -15.458 0.194
-14.508 -15.490 0.836
-16.217 -17.309 0.353
-15.958 -16.394 0.526
-15.958 -16.388 0.521
-16.204 -17.280 0.366
-14.285 -14.249 0.041
-15.966 -16.399 0.525
-15.412 -15.237 -0.102
-16.083 -16.379 0.386
-14.604 -14.606 -0.125
-15.581 -17.401 0.930
-15.489 -16.689 1.264
-13.644 -13.691 -0.056
-16.022 -16.392 0.460
-16.083 -16.379 0.386
-16.601 -16.675 0.022
-16.135 -17.180 0.467
-14.988 -14.383 -0.479
-15.321 -15.159 -0.093
-16.024 -16.398 0.465
-16.217 -17.308 0.351
-15.021 -14.384 -0.506
-16.083 -16.380 0.385
-16.031 -16.171 0.224
-13.298 -14.370 1.117
-16.606 -16.682 0.009
-15.025 -14.381 -0.523
-15.321 -15.457 0.194
-14.285 -14.248 0.040
-16.589 -16.669 0.007
-16.083 -16.380 0.386
-15.026 -14.383 -0.521
-15.416 -16.690 1.345
-14.285 -14.247 0.040
-15.412 -15.237 -0.102
-15.384 -15.237 -0.075
-14.285 -14.247 0.040
-15.663 -16.631 0.924
-16.082 -16.379 0.386
-12.654 -14.314 1.758
-13.686 -13.662 0.053
-14.256 -15.213 1.000
-15.354 -16.885 1.427
-14.284 -14.248 0.041
-15.024 -14.386 -0.516
-16.082 -16.379 0.387
-15.412 -15.237 -0.102
-15.412 -15.236 -0.102
-15.579 -16.298 0.771
-16.600 -16.672 -0.001
-16.218 -17.308 0.352
-14.566 -15.613 1.055
-14.241 -14.247 0.084
-13.644 -13.691 -0.056
-14.014 -13.737 -0.219
-16.218 -17.309 0.350
-16.173 -17.300 0.407
-15.015 -14.406 -0.516
-14.912 -14.348 -0.531
-16.139 -16.378 0.327
-15.014 -16.280 1.276
-14.684 -15.495 0.668
-16.217 -17.300 0.354
-15.379 -15.461 0.138
-15.581 -17.408 0.933
-16.217 -17.305 0.351
-14.635 -15.555 0.739
-15.966 -16.398 0.525
-16.218 -17.307 0.352
-10.054 -10.003 0.038
-16.218 -17.307 0.351
-15.380 -16.758 1.434
-13.432 -14.519 1.171
-16.194 -17.203 0.466
-14.036 -14.244 0.289
-13.990 -14.244 0.343
-14.034 -14.251 0.297
-15.182 -15.315 0.022
-13.834 -13.846 0.043
-14.844 -15.388 0.397
-13.975 -14.082 0.223
-14.082 -14.242 0.241
-13.623 -13.690 -0.034
-12.801 -13.017 0.076
-16.484 -16.681 0.135
-14.844 -15.389 0.397
-15.984 -16.252 0.368
-16.197 -16.382 0.276
-12.926 -13.987 1.081
-14.046 -14.189 0.189
-16.198 -16.381 0.275
-14.837 -15.443 0.438
-15.309 -15.237 -0.001
-15.156 -15.224 0.004
-15.915 -16.406 0.584
-12.812 -13.934 1.132
-13.604 -13.697 -0.006
-14.139 -15.221 1.122
-13.604 -13.697 -0.006
-14.501 -15.492 0.839
-9.613 -9.025 -0.521
-15.374 -16.538 1.242
-15.083 -15.939 0.924
-16.047 -16.361 0.406
-13.098 -14.368 1.310
-14.582 -15.601 1.076
-15.020 -14.372 -0.526
-13.127 -13.110 -0.010
-14.651 -15.425 0.652
-13.622 -13.690 -0.035
-15.404 -15.228 -0.101
-8.109 -8.283 0.172
-15.265 -15.228 0.036
-16.061 -16.375 0.404
-13.622 -13.689 -0.035
-16.065 -16.376 0.402
-14.001 -15.186 1.234
-14.257 -15.220 0.998
-16.615 -16.680 -0.001
-14.254 -14.580 0.364
-12.880 -12.917 0.082
-16.060 -16.377 0.408
-13.622 -13.690 -0.033
-9.283 -8.794 -0.408
-15.405 -15.228 -0.101
-13.622 -13.687 -0.038
-8.111 -8.254 0.152
-16.060 -16.377 0.409
-14.627 -15.506 0.736
-13.253 -14.361 1.160
-13.435 -13.683 0.286
-14.140 -15.189 1.099
-14.843 -15.388 0.397
-15.377 -15.229 -0.074
-15.377 -15.229 -0.074
-13.622 -13.689 -0.034
-13.436 -13.682 0.286
-14.983 -14.377 -0.482
-14.849 -14.365 -0.471
-9.337 -9.042 -0.267
-14.877 -15.977 1.206
-14.983 -14.375 -0.484
-15.264 -15.228 0.038
-15.937 -16.388 0.543
-14.779 -14.343 -0.421
-13.744 -13.679 -0.040
-16.061 -16.380 0.410
-16.061 -16.381 0.410
-14.635 -15.465 0.693
-14.284 -14.243 0.039
-13.986 -13.641 -0.279
-16.061 -16.379 0.409
-16.061 -16.380 0.409
-12.711 -14.289 1.676
-13.811 -13.723 -0.015
-16.061 -16.379 0.408
-15.404 -15.228 -0.101
-16.615 -16.680 -0.001
-15.936 -16.387 0.541
-15.937 -16.388 0.543
-15.937 -16.388 0.543
-13.622 -13.689 -0.035
-16.119 -16.379 0.351
-13.435 -13.683 0.287
-15.903 -16.296 0.464
-15.937 -16.388 0.543
-14.257 -15.220 0.998
-12.349 -12.156 -0.148
-14.499 -15.549 0.877
-15.404 -15.228 -0.101
-13.622 -13.689 -0.035
-14.038 -14.231 0.272
-16.074 -17.262 0.533
-13.622 -13.689 -0.035
-14.984 -14.375 -0.484
-14.284 -14.244 0.038
-13.622 -13.689 -0.036
-14.081 -14.240 0.239
-15.404 -15.228 -0.101
-16.060 -16.379 0.410
-15.936 -16.390 0.546
-13.622 -13.686 -0.041
-16.060 -16.379 0.409
-15.497 -16.745 1.300
-14.284 -14.243 0.037
-16.176 -17.296 0.405
-14.284 -14.243 0.037
-16.060 -16.379 0.409
-9.325 -9.021 -0.258
-16.195 -16.379 0.275
-13.107 -14.366 1.300
-15.404 -15.228 -0.100
-15.404 -15.228 -0.100
-14.778 -14.345 -0.417
-16.063 -16.374 0.405
-16.196 -16.378 0.274
-13.435 -13.682 0.287
-15.263 -15.229 0.038
-9.344 -9.044 -0.263
-13.622 -13.689 -0.034
-15.940 -16.387 0.540
-14.001 -15.185 1.234
-16.482 -16.680 0.135
-16.061 -16.380 0.410
-15.169 -15.127 0.039
-15.287 -15.222 0.001
-13.622 -13.689 -0.035
-16.567 -16.678 0.046
-14.155 -13.912 -0.167
-14.257 -15.220 0.998
-16.195 -16.378 0.275
-13.621 -13.700 -0.026
-15.061 -16.269 1.222
-16.056 -16.357 0.391
-13.653 -13.689 -0.068
-13.108 -14.364 1.295
-14.584 -15.286 0.591
-7.792 -8.133 0.328
-15.940 -16.389 0.541
-13.435 -13.683 0.288
-15.940 -16.390 0.541
-16.121 -16.381 0.350
-15.404 -15.228 -0.100
-13.810 -13.719 -0.018
-15.404 -15.229 -0.100
-8.111 -8.245 0.143
-13.934 -13.614 -0.216
-14.505 -15.512 0.845
-15.404 -15.228 -0.100
-16.176 -17.294 0.408
-15.021 -14.376 -0.525
-8.111 -8.266 0.164
-14.002 -15.185 1.233
-16.122 -16.381 0.349
-15.940 -16.391 0.543
-13.434 -13.683 0.286
-9.311 -8.991 -0.260
-14.640 -15.478 0.698
-16.064 -16.384 0.411
-16.064 -16.372 0.399
-14.001 -15.186 1.235
-9.621 -9.017 -0.532
-15.940 -16.385 0.536
-15.021 -14.378 -0.523
-15.404 -15.228 -0.101
-14.500 -15.577 0.882
-15.404 -15.228 -0.101
-13.305 -14.366 1.112
-14.015 -15.187 1.220
-16.061 -16.379 0.409
-13.108 -14.365 1.296
-15.404 -15.228 -0.101
-16.049 -17.281 0.558
-14.497 -15.453 0.818
-13.108 -14.364 1.295
-14.327 -14.247 -0.003
-14.818 -14.250 -0.496
-14.001 -15.187 1.235
-15.404 -15.228 -0.101
-12.711 -14.291 1.677
-13.108 -14.363 1.294
-15.404 -15.228 -0.101
-14.139 -15.217 1.117
-15.404 -15.228 -0.101
-14.093 -14.236 0.223
-15.021 -14.375 -0.525
-14.140 -15.196 1.102
-13.877 -14.319 0.562
-14.081 -14.241 0.241
-16.065 -16.381 0.407
-9.078 -8.934 -0.198
-15.376 -15.229 -0.074
-15.263 -15.229 0.038
-14.498 -15.521 0.851
-14.081 -14.241 0.241
-13.435 -13.683 0.287
-14.983 -14.376 -0.482
-14.500 -15.489 0.836
-14.081 -14.242 0.242
-15.021 -14.378 -0.527
-13.622 -13.689 -0.034
-15.938 -16.390 0.544
-14.284 -14.244 0.038
-14.257 -15.220 0.998
-14.001 -15.191 1.238
-16.566 -16.682 0.050
-15.020 -14.385 -0.520
-15.404 -15.228 -0.101
-15.264 -15.228 0.038
-14.571 -15.768 0.874
-13.810 -13.724 -0.015
-15.404 -15.228 -0.101
-15.404 -15.228 -0.101
-15.937 -16.390 0.544
-15.009 -16.271 1.282
-16.567 -16.682 0.050
-9.170 -9.097 0.019
-15.938 -16.388 0.542
-16.062 -16.381 0.410
-16.204 -17.200 0.392
-15.404 -15.228 -0.101
-13.183 -14.287 1.190
-15.939 -16.387 0.540
-16.062 -16.381 0.409
-14.081 -14.241 0.241
-15.937 -16.388 0.543
-15.323 -15.454 0.188
-13.622 -13.689 -0.035
-15.021 -14.376 -0.526
-10.983 -11.234 0.335
-10.983 -11.235 0.338
-10.962 -11.144 0.233
-10.968 -11.144 0.226
-11.259 -11.278 -0.086
-10.968 -11.140 0.223
-11.371 -10.752 -0.576
-10.978 -11.236 0.343
-12.448 -12.122 -0.292
-11.253 -11.245 -0.104
-12.448 -12.121 -0.293
-10.908 -11.228 0.406
-10.916 -11.104 0.275
-10.817 -11.259 0.524
-12.448 -12.122 -0.292
-10.967 -11.145 0.229
-10.737 -10.451 -0.303
-11.113 -10.828 -0.205
-11.245 -11.286 -0.066
-10.714 -11.233 0.604
-10.746 -11.259 0.598
-10.976 -11.157 0.230
-11.444 -10.714 -0.678
-10.860 -11.147 0.336
-9.497 -9.933 0.520
-10.749 -11.246 0.582
-10.637 -10.836 0.322
-10.976 -11.161 0.234
-11.968 -12.072 0.142
-11.024 -11.168 0.190
-12.445 -12.123 -0.288
-10.815 -11.255 0.522
-12.445 -12.123 -0.288