-8.739 -8.878 0.150
-8.718 -8.702 -0.007
-8.718 -8.702 -0.007
-17.992 -9.197 -8.785
-18.267 -9.385 -8.871
-18.267 -9.385 -8.871
-17.665 -9.221 -8.435
-18.267 -9.385 -8.871
-18.267 -9.385 -8.871
-18.267 -9.385 -8.871
-18.267 -9.385 -8.871
-18.267 -9.385 -8.871
-18.267 -9.385 -8.871
-18.267 -9.385 -8.871
-17.665 -9.221 -8.435
-18.866 -9.336 -9.519
-17.665 -9.221 -8.434
-18.266 -9.385 -8.870
-18.266 -9.385 -8.870
-18.561 -9.341 -9.209
-18.266 -9.385 -8.870
-17.665 -9.221 -8.434
-17.665 -9.221 -8.434
-18.266 -9.385 -8.870
-17.665 -9.221 -8.434
-18.266 -9.385 -8.870
-18.266 -9.385 -8.870
-18.266 -9.385 -8.870
-18.266 -9.385 -8.870
-18.266 -9.385 -8.870
-18.561 -9.341 -9.209
-17.975 -9.217 -8.749
-18.266 -9.385 -8.870
-18.266 -9.385 -8.870
-17.665 -9.221 -8.434
-18.561 -9.341 -9.209
-18.266 -9.385 -8.870
-8.943 -8.184 -0.752
-17.665 -9.221 -8.434
-18.564 -9.377 -9.176
-18.564 -9.377 -9.176
-9.225 -8.085 -1.133
-17.668 -9.219 -8.440
-18.268 -9.384 -8.873
-18.268 -9.384 -8.873
-18.268 -9.384 -8.873
-17.668 -9.219 -8.440
-18.268 -9.384 -8.873
-18.747 -9.338 -9.399
-18.268 -9.384 -8.872
-18.268 -9.384 -8.872
-18.566 -9.376 -9.178
-18.566 -9.376 -9.178
-18.566 -9.376 -9.179
-18.268 -9.384 -8.872
-17.668 -9.219 -8.440
-18.268 -9.384 -8.872
-18.268 -9.384 -8.872
-18.268 -9.384 -8.872
-18.268 -9.384 -8.872
-18.268 -9.384 -8.872
-8.474 -8.942 0.479
-18.565 -9.376 -9.178
-17.668 -9.219 -8.440
-18.563 -9.340 -9.212
-17.668 -9.219 -8.440
-18.268 -9.384 -8.873
-18.268 -9.384 -8.873
-18.268 -9.384 -8.873
-18.268 -9.384 -8.873
-17.668 -9.219 -8.440
-18.868 -9.335 -9.522
-8.637 -8.916 0.291
-8.637 -8.916 0.291
-18.565 -9.376 -9.178
-18.268 -9.384 -8.872
-18.268 -9.384 -8.872
-18.268 -9.384 -8.872
-18.566 -9.376 -9.179
-18.566 -9.376 -9.179
-18.268 -9.384 -8.872
-18.867 -9.335 -9.522
-8.984 -8.152 -0.825
-17.974 -9.216 -8.749
-17.974 -9.216 -8.749
-8.719 -9.220 0.511
-8.993 -8.159 -0.828
-8.993 -8.159 -0.828
-8.993 -8.159 -0.828
-18.490 -9.337 -9.142
-17.668 -9.219 -8.440
-18.268 -9.384 -8.872
-17.978 -9.216 -8.753
-8.654 -8.896 0.254
-17.978 -9.216 -8.752
-18.268 -9.384 -8.872
-18.268 -9.384 -8.872
-8.775 -9.180 0.416
-8.641 -8.911 0.282
-18.268 -9.384 -8.873
-8.641 -8.911 0.282
-8.641 -8.911 0.282
-18.268 -9.384 -8.872
-18.566 -9.376 -9.179
-17.668 -9.219 -8.440
-8.449 -8.866 0.428
-8.493 -8.933 0.451
-17.977 -9.216 -8.752
-18.565 -9.376 -9.178
-17.977 -9.216 -8.752
-8.654 -8.896 0.254
-8.721 -9.219 0.510
-8.993 -8.158 -0.828
-8.648 -9.187 0.551
-8.648 -9.187 0.551
-8.490 -8.935 0.455
-17.977 -9.216 -8.752
-17.977 -9.216 -8.752
-17.977 -9.216 -8.752
-8.491 -8.934 0.455
-8.491 -8.934 0.455
-8.491 -8.934 0.455
-17.668 -9.219 -8.440
-8.650 -9.184 0.545
-8.650 -9.184 0.545
-8.650 -9.184 0.545
-8.650 -9.184 0.545
-8.650 -9.184 0.545
-8.994 -8.159 -0.828
-17.668 -9.219 -8.440
-18.268 -9.384 -8.873
-8.985 -8.152 -0.827
-18.563 -9.340 -9.211
-8.984 -8.152 -0.826
-17.668 -9.219 -8.440
-18.268 -9.384 -8.873
-18.268 -9.384 -8.873
-18.268 -9.384 -8.873
-8.641 -8.911 0.282
-8.641 -8.911 0.282
-8.775 -9.180 0.416
-18.565 -9.376 -9.178
-8.639 -8.913 0.285
-18.268 -9.384 -8.873
-18.268 -9.384 -8.873
-17.668 -9.219 -8.440
-8.650 -9.184 0.545
-8.493 -8.933 0.451
-8.650 -9.184 0.545
-8.650 -9.184 0.545
-8.650 -9.184 0.545
-8.984 -8.156 -0.821
-18.863 -9.335 -9.517
-18.562 -9.377 -9.174
-18.562 -9.377 -9.174
-8.729 -9.221 0.503
-17.668 -9.219 -8.440
-8.650 -9.184 0.545
-8.724 -9.219 0.506
-8.650 -9.184 0.545
-8.449 -8.867 0.429
-18.631 -9.337 -9.283
-8.727 -9.221 0.506
-17.977 -9.216 -8.752
-18.268 -9.384 -8.872
-8.985 -8.152 -0.827
-18.268 -9.384 -8.872
-17.978 -9.216 -8.753
-17.978 -9.216 -8.753
-17.978 -9.216 -8.753
-8.786 -9.161 0.387
-18.747 -9.338 -9.398
-8.631 -9.244 0.624
-18.565 -9.376 -9.177
-18.268 -9.384 -8.872
-17.668 -9.219 -8.440
-18.747 -9.338 -9.399
-17.978 -9.216 -8.753
-18.566 -9.376 -9.178
-17.978 -9.216 -8.753
-18.268 -9.384 -8.872
-18.566 -9.376 -9.179
-17.668 -9.219 -8.440
-8.788 -9.159 0.383
-8.788 -9.159 0.383
-8.650 -9.184 0.545
-8.650 -9.184 0.545
-8.650 -9.184 0.545
-8.493 -8.933 0.451
-17.668 -9.219 -8.440
-8.650 -9.184 0.545
-18.562 -9.340 -9.211
-18.632 -9.337 -9.284
-8.429 -8.883 0.465
-8.654 -9.206 0.563
-8.984 -8.152 -0.826
-8.726 -9.221 0.506
-18.564 -9.376 -9.177
-18.564 -9.376 -9.177
-8.395 -9.189 0.806
-18.564 -9.376 -9.177
-17.976 -9.216 -8.751
-8.447 -8.868 0.432
-18.268 -9.384 -8.872
-18.566 -9.376 -9.179
-18.268 -9.384 -8.872
-18.747 -9.338 -9.399
-8.470 -8.944 0.485
-8.395 -9.198 0.814
-8.726 -9.221 0.506
-17.977 -9.216 -8.752
-8.720 -9.219 0.510
-8.653 -8.896 0.254
-18.268 -9.384 -8.872
-8.985 -8.152 -0.826
-18.562 -9.340 -9.211
-8.988 -8.158 -0.824
-8.988 -8.158 -0.824
-8.521 -8.151 -0.361
-8.395 -9.194 0.811
-9.224 -8.085 -1.133
-8.430 -8.882 0.463
-8.521 -8.151 -0.362
-17.668 -9.219 -8.440
-8.670 -9.180 0.521
-8.670 -9.180 0.521
-8.670 -9.180 0.521
-18.007 -9.206 -8.792
-8.660 -9.183 0.535
-8.764 -9.215 0.462
-8.764 -9.215 0.462
-8.659 -9.183 0.535
-8.659 -9.183 0.535
-8.659 -9.183 0.535
-8.659 -9.183 0.535
-8.659 -9.183 0.535
-8.983 -8.156 -0.820
-8.983 -8.156 -0.820
-8.668 -9.174 0.517
-8.494 -8.934 0.451
-8.274 -8.797 0.533
-18.779 -9.335 -9.434
-18.779 -9.335 -9.434
-8.857 -8.031 -0.817
-8.563 -8.134 -0.421
-8.365 -8.749 0.395
-8.778 -8.795 0.028
-9.027 -9.155 0.138
-8.950 -9.034 0.094
-8.778 -8.795 0.028
-8.976 -9.162 0.197
-8.542 -8.153 -0.381
-8.542 -8.153 -0.380
-8.542 -8.153 -0.381
-8.542 -8.153 -0.380
-8.793 -9.032 0.250
-8.975 -9.163 0.199
-8.993 -9.160 0.177
-8.822 -9.047 0.236
-8.731 -8.696 -0.026
-8.993 -9.160 0.177
-8.993 -9.160 0.177
-8.993 -9.160 0.177
-8.976 -9.162 0.197
-8.544 -9.277 0.743
-8.972 -9.159 0.198
-8.972 -9.159 0.198
-8.832 -9.044 0.222
-18.036 -9.209 -8.818
-8.517 -8.147 -0.362
-18.034 -9.210 -8.815
-18.610 -9.373 -9.226
-8.643 -8.904 0.272
-17.728 -9.211 -8.508
-17.728 -9.211 -8.508
-18.317 -9.381 -8.925
-8.512 -8.147 -0.357
-8.512 -8.147 -0.357
-8.657 -9.187 0.541
-8.657 -9.187 0.541
-8.728 -9.221 0.503
-8.991 -8.156 -0.829
-18.611 -9.373 -9.227
-8.725 -9.221 0.507
-8.398 -9.496 1.108
-18.317 -9.381 -8.925
-8.456 -9.482 1.036
-18.615 -9.373 -9.231
-18.317 -9.381 -8.925
-18.615 -9.373 -9.231
-18.317 -9.381 -8.925
-8.649 -9.196 0.558
-8.289 -8.811 0.532
-8.522 -8.149 -0.364
-8.512 -8.147 -0.357
-8.512 -8.147 -0.357
-18.317 -9.381 -8.925
-18.615 -9.373 -9.231
-8.726 -9.221 0.506
-8.511 -8.146 -0.357
-8.511 -8.146 -0.357
-8.264 -8.793 0.540
-18.612 -9.373 -9.228
-18.612 -9.373 -9.228
-8.170 -8.578 0.418
-8.458 -9.484 1.037
-8.521 -8.149 -0.364
-8.511 -8.146 -0.357
-8.398 -9.496 1.108
-18.754 -9.339 -9.405
-8.260 -8.805 0.556
-8.260 -8.805 0.556
-8.508 -8.148 -0.352
-8.353 -9.216 0.875
-8.353 -9.216 0.875
-8.508 -8.148 -0.352
-8.353 -9.216 0.875
-18.575 -9.376 -9.188
-18.575 -9.376 -9.188
-8.394 -9.194 0.812
-8.474 -8.946 0.483
-8.395 -8.946 0.562
-8.394 -9.195 0.812
-8.169 -8.581 0.423
-8.169 -8.581 0.423
-18.575 -9.376 -9.188
-8.394 -9.194 0.812
-8.508 -8.148 -0.352
-17.995 -9.211 -8.775
-18.279 -9.384 -8.884
-17.690 -9.212 -8.469
-8.495 -8.937 0.453
-8.656 -9.181 0.536
-8.656 -9.181 0.536
-8.399 -8.872 0.484
-8.746 -9.220 0.486
-8.987 -8.152 -0.828
-8.494 -8.937 0.453
-18.279 -9.384 -8.884
-8.394 -9.185 0.803
-8.476 -8.945 0.480
-18.758 -9.338 -9.409
-8.167 -8.583 0.426
-8.167 -8.583 0.426
-8.678 -9.207 0.540
-8.167 -8.583 0.426
-18.142 -9.213 -8.920
-8.726 -9.219 0.504
-8.109 -8.582 0.483
-9.227 -8.086 -1.135
-9.227 -8.086 -1.135
-8.109 -8.582 0.483
-17.995 -9.211 -8.775
-8.726 -9.220 0.505
-8.514 -8.148 -0.357
-8.397 -8.873 0.487
-8.397 -8.873 0.487
-8.652 -8.895 0.254
-8.652 -8.895 0.254
-8.639 -9.177 0.549
-8.272 -8.796 0.534
-8.272 -8.796 0.534
-8.272 -8.796 0.534
-8.524 -8.151 -0.365
-8.272 -8.796 0.534
-8.272 -8.796 0.534
-8.639 -9.177 0.550
-18.279 -9.384 -8.884
-8.509 -8.148 -0.353
-8.509 -8.148 -0.353
-8.394 -9.185 0.803
-9.224 -8.085 -1.132
-9.224 -8.085 -1.132
-9.224 -8.085 -1.132
-18.139 -9.213 -8.917
-8.653 -9.185 0.543
-8.378 -9.475 1.108
-8.760 -9.218 0.469
-8.514 -8.148 -0.357
-8.514 -8.148 -0.357
-18.573 -9.377 -9.185
-18.279 -9.384 -8.884
-8.509 -8.148 -0.353
-8.509 -8.148 -0.353
-18.573 -9.377 -9.186
-8.169 -8.581 0.423
-8.641 -9.205 0.575
-8.169 -8.581 0.423
-8.169 -8.581 0.423
-8.394 -9.496 1.112
-8.509 -8.148 -0.353
-8.717 -9.223 0.517
-8.352 -9.213 0.872
-8.718 -9.223 0.516
-8.169 -8.581 0.423
-8.509 -8.148 -0.353
-18.573 -9.377 -9.186
-8.509 -8.148 -0.353
-8.641 -9.205 0.575
-8.169 -8.581 0.423
-8.261 -8.804 0.553
-8.605 -9.202 0.609
-18.575 -9.376 -9.188
-8.394 -9.195 0.812
-8.394 -9.195 0.812
-8.169 -8.581 0.423
-8.169 -8.581 0.423
-8.509 -8.148 -0.353
-8.509 -8.148 -0.353
-8.509 -8.148 -0.353
-8.509 -8.148 -0.353
-8.509 -8.148 -0.353
-8.169 -8.581 0.423
-8.509 -8.148 -0.353
-8.509 -8.148 -0.353
-8.625 -9.199 0.585
-8.717 -9.223 0.517
-8.352 -9.213 0.872
-8.508 -8.148 -0.353
-8.169 -8.581 0.423
-8.382 -8.886 0.516
-8.394 -9.496 1.112
-18.576 -9.376 -9.189
-8.261 -8.804 0.553
-8.625 -9.199 0.584
-8.605 -9.202 0.609
-8.453 -9.484 1.041
-8.382 -8.887 0.516
-8.509 -8.148 -0.353
-8.977 -8.155 -0.816
-8.987 -8.158 -0.823
-8.641 -9.205 0.575
-8.641 -9.205 0.575
-8.641 -9.205 0.575
-8.641 -9.205 0.575
-8.641 -9.205 0.575
-8.394 -9.195 0.812
-8.519 -8.151 -0.361
-8.736 -9.221 0.496
-8.509 -8.148 -0.353
-8.717 -9.223 0.518
-8.169 -8.581 0.423
-8.169 -8.581 0.423
-8.169 -8.581 0.423
-18.573 -9.377 -9.185
-8.736 -9.221 0.495
-8.510 -8.148 -0.354
-8.510 -8.148 -0.354
-8.510 -8.148 -0.354
-8.510 -8.148 -0.354
-18.573 -9.377 -9.185
-8.736 -9.221 0.495
-8.169 -8.581 0.423
-8.642 -9.204 0.574
-8.757 -9.222 0.475
-8.642 -9.204 0.574
-8.510 -8.148 -0.354
-8.394 -9.195 0.812
-8.724 -9.222 0.509
-8.724 -9.222 0.509
-8.626 -9.198 0.584
-8.510 -8.148 -0.354
-8.509 -8.148 -0.354
-8.510 -8.148 -0.354
-8.641 -9.205 0.576
-8.641 -9.205 0.576
-8.641 -9.205 0.576
-17.995 -9.211 -8.775
-8.514 -8.149 -0.357
-8.514 -8.149 -0.357
-8.742 -9.221 0.490
-8.742 -9.221 0.490
-8.565 -9.182 0.629
-8.982 -8.156 -0.819
-8.514 -8.149 -0.357
-8.514 -8.149 -0.357
-8.397 -8.873 0.488
-8.109 -8.582 0.483
-8.180 -8.569 0.400
-8.982 -8.156 -0.819
-8.514 -8.149 -0.357
-8.514 -8.149 -0.357
-8.398 -8.873 0.487
-8.514 -8.149 -0.357
-8.413 -8.939 0.537
-8.438 -9.462 1.035
-8.309 -8.467 0.169
-8.309 -8.467 0.168
-8.975 -9.160 0.195
-8.861 -8.033 -0.819
-8.567 -8.135 -0.424
-9.007 -9.156 0.160
-9.014 -9.159 0.156
-8.567 -8.135 -0.424
-8.567 -8.135 -0.424
-8.567 -8.135 -0.424
-8.833 -9.044 0.221
-8.833 -9.044 0.221
-8.844 -9.027 0.194
-8.833 -9.044 0.221
-8.972 -9.159 0.197
-8.833 -9.044 0.221
-8.400 -8.764 0.375
-8.375 -8.754 0.389
-8.994 -9.158 0.175
-8.567 -8.135 -0.424
-8.994 -9.159 0.175
-8.994 -9.159 0.175
-8.493 -9.292 0.809
-8.314 -8.465 0.162
-8.833 -9.044 0.222
-8.824 -9.031 0.217
-8.972 -9.159 0.197
-8.833 -9.044 0.221
-8.833 -9.044 0.221
-8.833 -9.044 0.221
-8.314 -8.465 0.162
-8.833 -9.044 0.221
-8.314 -8.465 0.162
-8.567 -8.135 -0.424
-8.658 -8.859 0.212
-8.747 -9.039 0.304
-8.747 -9.039 0.303
-8.013 -8.146 0.142
-8.973 -9.159 0.196
-8.973 -9.159 0.196
-8.375 -8.754 0.389
-8.567 -8.135 -0.424
-8.567 -8.135 -0.424
-8.871 -9.044 0.184
-9.013 -9.159 0.157
-8.871 -9.044 0.184
-8.994 -9.158 0.175
-8.244 -8.474 0.240
-8.567 -8.135 -0.424
-8.567 -8.135 -0.424
-8.567 -8.135 -0.424
-8.567 -8.135 -0.424
-8.543 -9.277 0.744
-8.833 -9.044 0.222
-8.801 -9.041 0.251
-8.314 -8.465 0.162
-9.256 -8.091 -1.159
-8.821 -9.032 0.221
-8.821 -9.032 0.221
-8.991 -9.159 0.178
-8.244 -8.474 0.240
-8.244 -8.474 0.240
-8.244 -8.474 0.240
-8.244 -8.474 0.240
-8.244 -8.474 0.240
-8.542 -8.153 -0.381
-8.831 -9.044 0.224
-8.831 -9.044 0.224
-8.831 -9.044 0.224
-8.985 -9.160 0.186
-8.543 -9.277 0.744
-8.542 -8.153 -0.381
-8.022 -8.173 0.161
-8.985 -9.160 0.186
-8.822 -9.032 0.221
-8.822 -9.032 0.221
-8.822 -9.032 0.221
-9.025 -9.160 0.146
-8.831 -9.044 0.224
-8.831 -9.044 0.224
-8.971 -9.159 0.199
-8.821 -9.032 0.221
-8.743 -9.041 0.309
-9.011 -9.160 0.159
-8.486 -8.862 0.387
-8.542 -8.153 -0.381
-8.821 -9.032 0.221
-8.821 -9.032 0.221
-8.543 -9.277 0.744
-8.831 -9.044 0.224
-8.542 -8.153 -0.381
-8.984 -9.160 0.186
-8.542 -8.153 -0.380
-8.542 -8.153 -0.380
-8.831 -9.044 0.224
-8.011 -8.170 0.168
-8.821 -9.032 0.221
-8.542 -8.153 -0.381
-8.244 -8.474 0.240
-8.869 -9.045 0.186
-8.314 -8.465 0.162
-8.314 -8.465 0.162
-8.743 -9.041 0.309
-8.807 -9.028 0.231
-8.743 -9.041 0.309
-8.831 -9.044 0.224
-8.559 -8.879 0.331
-8.543 -9.277 0.744
-8.005 -8.164 0.168
-8.354 -8.765 0.421
-9.025 -9.160 0.145
-8.542 -8.153 -0.381
-8.804 -9.029 0.236
-8.971 -9.159 0.199
-8.244 -8.474 0.240
-9.011 -9.160 0.159
-8.543 -9.277 0.744
-8.543 -9.277 0.744
-8.542 -8.153 -0.381
-8.869 -9.045 0.186
-8.869 -9.045 0.186
-8.542 -8.153 -0.381
-8.831 -9.044 0.224
-9.011 -9.160 0.159
-8.971 -9.159 0.199
-8.869 -9.045 0.186
-8.985 -9.160 0.186
-8.985 -9.160 0.186
-8.985 -9.160 0.186
-9.012 -8.157 -0.848
-9.256 -8.091 -1.159
-8.821 -9.032 0.221
-8.486 -8.862 0.387
-8.743 -9.041 0.309
-8.314 -8.465 0.162
-8.559 -8.879 0.330
-9.026 -9.160 0.145
-8.994 -9.159 0.175
-8.843 -9.027 0.194
-8.542 -8.153 -0.381
-8.971 -9.159 0.199
-8.354 -8.765 0.421
-8.008 -8.167 0.169
-8.985 -9.160 0.186
-8.765 -9.038 0.284
-8.972 -9.159 0.198
-9.012 -9.159 0.158
-9.012 -9.159 0.158
-8.972 -9.159 0.198
-9.026 -9.160 0.145
-8.832 -9.044 0.222
-8.832 -9.044 0.222
-8.832 -9.044 0.222
-8.832 -9.044 0.222
-8.832 -9.044 0.222
-8.774 -9.046 0.283
-8.870 -9.044 0.185
-8.985 -9.160 0.185
-9.026 -9.160 0.145
-8.244 -8.473 0.240
-8.744 -9.040 0.307
-8.744 -9.040 0.307
-8.744 -9.040 0.307
-8.355 -8.765 0.420
-8.542 -8.153 -0.381
-9.011 -9.160 0.159
-8.773 -9.047 0.285
-8.021 -8.173 0.161
-9.011 -9.160 0.159
-8.869 -9.045 0.186
-8.869 -9.045 0.186
-8.971 -9.159 0.199
-8.542 -8.153 -0.381
-8.542 -8.153 -0.381
-8.869 -9.045 0.186
-8.543 -9.277 0.744
-8.985 -9.160 0.186
-8.011 -8.170 0.168
-8.869 -9.045 0.186
-8.011 -8.170 0.168
-8.314 -8.465 0.162
-8.543 -9.277 0.744
-8.543 -9.277 0.744
-9.011 -9.160 0.159
-8.985 -9.160 0.186
-8.971 -9.159 0.199
-8.821 -9.032 0.221
-8.831 -9.044 0.224
-8.831 -9.044 0.224
-8.993 -9.159 0.177
-8.991 -9.159 0.178
-8.765 -9.038 0.284
-8.985 -9.160 0.185
-8.994 -9.159 0.176
-8.994 -9.159 0.176
-8.832 -9.044 0.222
-8.870 -9.044 0.185
-8.005 -8.164 0.168
-9.012 -9.160 0.158
-9.018 -8.154 -0.857
-9.018 -8.154 -0.857
-8.314 -8.465 0.162
-8.869 -9.044 0.186
-8.542 -8.154 -0.380
-8.486 -8.862 0.387
-8.985 -9.160 0.186
-8.821 -9.032 0.221
-8.011 -8.170 0.169
-8.743 -9.041 0.309
-8.542 -8.154 -0.380
-8.984 -9.160 0.186
-8.804 -9.029 0.237
-8.011 -8.170 0.169
-8.542 -8.154 -0.380
-8.543 -9.277 0.744
-8.011 -8.170 0.169
-8.984 -9.160 0.186
-8.984 -9.160 0.186
-8.011 -8.170 0.169
-8.011 -8.170 0.169
-8.869 -9.045 0.186
-8.869 -9.045 0.186
-8.849 -9.043 0.205
-8.869 -9.044 0.186
-8.542 -8.154 -0.380
-8.743 -9.041 0.309
-8.985 -9.160 0.186
-8.742 -9.041 0.309
-8.542 -8.154 -0.380
-9.011 -9.160 0.159
-8.821 -9.032 0.221
-8.773 -9.047 0.285
-8.011 -8.170 0.169
-8.821 -9.032 0.221
-8.821 -9.032 0.221
-8.743 -9.041 0.309
-8.831 -9.044 0.224
-9.011 -9.160 0.159
-8.831 -9.044 0.224
-8.869 -9.044 0.186
-9.025 -9.160 0.146
-8.553 -9.277 0.734
-8.742 -9.041 0.309
-8.813 -9.032 0.231
-9.028 -9.160 0.142
-8.823 -9.029 0.217
-8.545 -9.279 0.745
-7.932 -8.153 0.230
-7.932 -8.153 0.230
-7.932 -8.153 0.230
-8.872 -9.043 0.182
-8.826 -9.155 0.340
-8.807 -9.027 0.231
-7.932 -8.153 0.230
-9.029 -9.160 0.142
-8.989 -9.160 0.182
-8.989 -9.160 0.182
-9.029 -9.160 0.142
-8.989 -9.160 0.182
-8.490 -9.294 0.814
-8.239 -8.475 0.247
-8.533 -8.639 0.115
-8.376 -8.754 0.388
-8.872 -9.044 0.183
-8.480 -9.292 0.822
-8.016 -8.150 0.143
-8.986 -9.159 0.183
-8.568 -8.135 -0.425
-8.568 -8.135 -0.425
-8.746 -9.040 0.305
-8.987 -9.159 0.183
-8.987 -9.159 0.183
-8.568 -8.135 -0.425
-8.871 -9.044 0.184
-8.018 -8.152 0.143
-8.825 -9.031 0.217
-8.574 -8.876 0.312
-8.489 -9.292 0.813
-8.987 -9.159 0.182
-8.314 -8.465 0.162
-8.987 -9.159 0.182
-8.770 -9.037 0.277
-8.013 -8.146 0.143
-8.872 -9.043 0.183
-8.544 -9.277 0.743
-8.013 -8.146 0.143
-8.013 -8.146 0.143
-8.013 -8.146 0.143
-8.013 -8.146 0.143
-8.013 -8.146 0.143
-8.553 -9.277 0.734
-8.747 -9.039 0.303
-8.489 -9.292 0.812
-8.013 -8.146 0.143
-8.013 -8.146 0.143
-8.013 -8.146 0.143
-8.013 -8.146 0.143
-8.747 -9.039 0.303
-8.987 -9.159 0.182
-8.807 -9.028 0.232
-8.568 -8.135 -0.425
-8.018 -8.152 0.143
-8.994 -9.159 0.175
-9.012 -9.159 0.157
-8.986 -9.160 0.184
-8.986 -9.160 0.184
-8.568 -8.135 -0.425
-8.489 -9.292 0.813
-8.972 -9.159 0.197
-8.986 -9.160 0.184
-8.979 -9.158 0.189
-8.979 -9.158 0.189
-8.979 -9.158 0.189
-8.986 -9.159 0.184
-8.568 -8.135 -0.425
-8.871 -9.044 0.184
-8.018 -8.152 0.143
-8.824 -9.031 0.217
-8.986 -9.159 0.184
-8.852 -9.042 0.201
-8.852 -9.042 0.201
-8.986 -9.159 0.184
-8.824 -9.031 0.217
-8.986 -9.159 0.184
-8.986 -9.159 0.184
-8.018 -8.152 0.144
-8.824 -9.031 0.217
-8.994 -9.158 0.175
-8.994 -9.158 0.175
-8.972 -9.159 0.197
-8.833 -9.044 0.221
-8.833 -9.044 0.221
-8.018 -8.152 0.143
-8.824 -9.031 0.217
-8.806 -9.029 0.234
-8.806 -9.029 0.234
-8.994 -9.158 0.175
-8.029 -8.155 0.136
-8.244 -8.474 0.240
-8.018 -8.152 0.143
-8.568 -8.135 -0.425
-8.871 -9.044 0.184
-9.013 -9.159 0.157
-8.018 -8.152 0.144
-8.986 -9.160 0.184
-8.972 -9.159 0.197
-8.986 -9.160 0.184
-8.018 -8.152 0.144
-9.012 -9.159 0.157
-9.012 -9.159 0.157
-8.972 -9.159 0.197
-8.986 -9.160 0.184
-8.871 -9.044 0.184
-8.833 -9.044 0.222
-8.833 -9.044 0.222
-8.824 -9.031 0.217
-8.806 -9.029 0.234
-8.833 -9.044 0.221
-8.833 -9.044 0.221
-8.833 -9.044 0.221
-8.833 -9.044 0.221
-8.553 -9.277 0.734
-9.026 -9.160 0.144
-9.026 -9.160 0.144
-8.824 -9.031 0.217
-8.833 -9.044 0.221
-8.833 -9.044 0.221
-8.543 -9.277 0.744
-8.833 -9.044 0.221
-8.018 -8.152 0.143
-9.026 -9.160 0.144
-8.029 -8.155 0.136
-8.805 -9.029 0.234
-8.972 -9.159 0.197
-8.833 -9.044 0.222
-8.972 -9.159 0.197
-8.972 -9.159 0.197
-8.833 -9.044 0.222
-8.496 -8.862 0.377
-8.135 -8.471 0.346
-8.986 -9.159 0.184
-8.972 -9.159 0.197
-8.833 -9.044 0.221
-8.833 -9.044 0.221
-8.806 -9.029 0.234
-8.871 -9.044 0.183
-8.972 -9.159 0.197
-8.018 -8.152 0.144
-8.852 -9.042 0.201
-8.972 -9.159 0.197
-8.833 -9.044 0.221
-8.972 -9.159 0.197
-8.833 -9.044 0.221
-8.833 -9.044 0.221
-8.833 -9.044 0.221
-8.986 -9.159 0.184
-8.986 -9.159 0.184
-8.833 -9.044 0.221
-8.833 -9.044 0.221
-8.543 -9.277 0.744
-11.846 -4.414 -7.425
-11.846 -4.414 -7.425
-11.675 -4.414 -7.255
-11.675 -4.414 -7.255
-11.675 -4.414 -7.255
-12.298 -4.941 -7.361
-12.298 -4.941 -7.361
-12.298 -4.941 -7.361
-12.298 -4.941 -7.361
-11.873 -4.412 -7.455
-11.873 -4.412 -7.455
-8.794 -4.600 -4.185
-7.273 -5.657 -1.606
-11.867 -4.412 -7.449
-11.867 -4.412 -7.449
-11.663 -4.432 -7.226
-11.867 -4.412 -7.449
-8.790 -4.601 -4.180
-12.244 -4.913 -7.335
-12.244 -4.913 -7.335
-12.223 -4.953 -7.275
-12.223 -4.953 -7.275
-12.223 -4.953 -7.275
-11.739 -4.435 -7.298
-11.739 -4.435 -7.298
-11.849 -4.415 -7.427
-8.770 -4.606 -4.155
-12.223 -4.953 -7.275
-12.223 -4.953 -7.275
-12.223 -4.953 -7.275
-8.585 -4.800 -3.778
-11.740 -5.063 -6.679
-12.250 -4.912 -7.343
-11.738 -4.435 -7.296
-8.769 -4.606 -4.154
-8.845 -4.583 -4.253
-7.000 -6.022 -0.968
-5.146 -5.706 0.570
-5.146 -5.706 0.570
-5.146 -5.706 0.570
-8.772 -4.606 -4.157
-8.588 -4.799 -3.781
-4.967 -5.907 0.952
-4.967 -5.907 0.952
-8.588 -4.799 -3.781
-12.229 -4.952 -7.281
-12.229 -4.952 -7.281
-8.773 -4.606 -4.158
-5.145 -5.713 0.578
-11.745 -5.062 -6.686
-11.855 -4.414 -7.434
-11.855 -4.414 -7.434
-12.229 -4.952 -7.281
-8.773 -4.606 -4.158
-8.714 -4.767 -3.939
-12.229 -4.952 -7.281
-12.229 -4.952 -7.281
-12.229 -4.952 -7.281
-12.229 -4.952 -7.281
-11.855 -4.414 -7.434
-12.255 -4.911 -7.349
-6.904 -6.016 -0.878
-11.744 -5.063 -6.684
-8.772 -4.606 -4.157
-5.413 -5.703 0.301
-12.229 -4.952 -7.281
-6.905 -6.016 -0.878
-11.742 -4.416 -7.320
-12.229 -4.952 -7.281
-12.229 -4.952 -7.281
-7.000 -6.022 -0.968
-6.905 -6.016 -0.878
-6.905 -6.016 -0.878
-6.905 -6.016 -0.878
-6.905 -6.016 -0.878
-6.905 -6.016 -0.878
-6.905 -6.016 -0.878
-7.260 -5.623 -1.627
-8.769 -4.607 -4.154
-5.145 -5.713 0.579
-6.567 -5.991 -0.565
-11.740 -5.064 -6.679
-11.740 -5.064 -6.679
-8.586 -4.800 -3.778
-5.489 -5.705 0.227
-11.628 -4.437 -7.184
-8.752 -4.613 -4.130
-8.571 -4.803 -3.760
-8.571 -4.803 -3.760
-8.827 -4.590 -4.228
-12.239 -4.916 -7.328
-11.735 -5.066 -6.672
-11.845 -4.417 -7.421
-11.845 -4.417 -7.421
-8.581 -4.801 -3.773
-11.735 -5.066 -6.672
-12.220 -4.955 -7.269
-12.176 -4.975 -7.205
-6.905 -6.016 -0.879
-5.490 -5.702 0.223
-5.490 -5.702 0.223
-11.750 -4.417 -7.326
-11.844 -4.417 -7.421
-11.750 -4.417 -7.326
-11.639 -4.435 -7.197
-11.737 -4.436 -7.294
-11.846 -4.417 -7.423
-11.758 -4.399 -7.352
-8.766 -4.608 -4.149
-8.710 -4.769 -3.935
-11.844 -4.417 -7.420
-11.737 -5.066 -6.674
-7.240 -5.666 -1.564
-5.148 -5.705 0.568
-5.148 -5.705 0.568
-5.148 -5.705 0.568
-11.737 -5.066 -6.674
-11.737 -5.066 -6.674
-8.678 -4.772 -3.899
-6.673 -5.980 -0.682
-8.710 -4.769 -3.935
-12.245 -4.915 -7.335
-8.585 -4.801 -3.777
-7.240 -5.666 -1.564
-11.750 -4.417 -7.326
-11.750 -4.417 -7.326
-11.750 -4.417 -7.326
-11.750 -4.417 -7.326
-11.636 -4.436 -7.194
-4.841 -5.657 0.827
-8.675 -4.772 -3.896
-5.413 -5.703 0.301
-5.489 -5.705 0.227
-8.767 -4.608 -4.151
-4.965 -5.909 0.955
-8.767 -4.608 -4.151
-6.904 -6.017 -0.877
-8.582 -4.801 -3.774
-8.582 -4.801 -3.774
-8.582 -4.801 -3.774
-8.582 -4.801 -3.774
-11.737 -5.066 -6.674
-11.737 -5.066 -6.674
-8.582 -4.801 -3.774
-8.767 -4.608 -4.151
-5.145 -5.713 0.579
-5.145 -5.713 0.579
-6.904 -6.017 -0.877
-11.737 -5.066 -6.674
-11.737 -5.066 -6.674
-12.251 -4.913 -7.343
-8.585 -4.801 -3.777
-8.770 -4.607 -4.154
-5.145 -5.713 0.579
-11.741 -5.065 -6.679
-8.770 -4.607 -4.154
-5.489 -5.705 0.227
-12.226 -4.954 -7.276
-11.742 -5.064 -6.681
-11.742 -5.064 -6.681
-11.742 -5.064 -6.681
-11.849 -4.417 -7.426
-12.226 -4.954 -7.276
-8.586 -4.801 -3.778
-4.988 -5.647 0.671
-11.742 -5.064 -6.681
-11.742 -5.064 -6.681
-12.226 -4.954 -7.276
-7.001 -6.022 -0.969
-8.585 -4.801 -3.778
-8.585 -4.801 -3.778
-8.585 -4.801 -3.778
-5.414 -5.703 0.300
-5.414 -5.703 0.300
-7.240 -5.666 -1.564
-7.240 -5.666 -1.564
-8.582 -4.801 -3.774
-5.489 -5.705 0.227
-5.489 -5.705 0.227
-6.673 -5.980 -0.682
-11.734 -4.418 -7.310
-6.904 -6.017 -0.877
-6.904 -6.017 -0.877
-5.145 -5.706 0.571
-11.827 -4.419 -7.402
-11.827 -4.419 -7.402
-11.644 -4.418 -7.220
-11.644 -4.418 -7.220
-11.749 -4.417 -7.325
-11.635 -4.436 -7.193
-12.226 -4.954 -7.276
-12.226 -4.954 -7.276
-11.849 -4.417 -7.426
-6.905 -6.016 -0.879
-6.905 -6.016 -0.879
-5.490 -5.702 0.223
-11.742 -5.064 -6.681
-8.586 -4.801 -3.778
-8.586 -4.801 -3.778
-11.639 -4.435 -7.197
-11.639 -4.435 -7.197
-11.644 -4.418 -7.220
-11.635 -4.436 -7.193
-11.735 -5.066 -6.671
-8.581 -4.801 -3.772
-8.581 -4.801 -3.772
-8.581 -4.801 -3.772
-8.581 -4.801 -3.772
-7.240 -5.666 -1.564
-8.767 -4.608 -4.151
-8.767 -4.608 -4.151
-8.582 -4.801 -3.774
-11.758 -4.399 -7.353
-6.903 -6.017 -0.876
-11.732 -4.418 -7.307
-6.903 -6.017 -0.876
-4.965 -5.904 0.951
-4.965 -5.904 0.951
-8.766 -4.608 -4.149
-12.226 -4.954 -7.276
-4.866 -5.630 0.775
-4.956 -5.647 0.702
-7.001 -6.022 -0.969
-4.965 -5.904 0.950
-4.965 -5.904 0.950
-4.965 -5.904 0.950
-5.146 -5.706 0.571
-7.260 -5.625 -1.625
-8.582 -4.801 -3.774
-8.582 -4.801 -3.774
-5.489 -5.705 0.227
-11.747 -4.418 -7.323
-8.839 -4.585 -4.245
-8.839 -4.585 -4.245
-6.904 -6.017 -0.877
-11.737 -5.066 -6.674
-11.737 -5.066 -6.674
-8.767 -4.608 -4.151
-4.986 -5.649 0.674
-8.582 -4.801 -3.774
-11.737 -5.066 -6.674
-11.737 -5.066 -6.674
-8.678 -4.772 -3.899
-12.226 -4.954 -7.276
-4.929 -5.900 0.983
-8.770 -4.607 -4.155
-8.585 -4.801 -3.778
-8.770 -4.607 -4.155
-11.742 -5.064 -6.681
-8.585 -4.801 -3.778
-8.770 -4.607 -4.155
-12.246 -4.914 -7.336
-11.752 -4.417 -7.328
-11.752 -4.417 -7.328
-7.147 -5.675 -1.462
-4.900 -5.586 0.698
-11.846 -4.417 -7.422
-8.585 -4.801 -3.777
-6.566 -5.991 -0.563
-4.897 -5.590 0.705
-8.770 -4.607 -4.154
-6.674 -5.979 -0.683
-6.674 -5.979 -0.683
-8.585 -4.801 -3.777
-5.489 -5.705 0.226
-8.585 -4.801 -3.777
-11.741 -5.065 -6.679
-11.741 -5.065 -6.679
-11.848 -4.417 -7.425
-8.710 -4.769 -3.935
-12.226 -4.954 -7.276
-11.742 -5.064 -6.681
-7.001 -6.022 -0.969
-5.146 -5.706 0.571
-5.146 -5.706 0.571
-5.490 -5.702 0.223
-7.240 -5.666 -1.564
-5.491 -5.703 0.223
-5.491 -5.703 0.223
-6.904 -6.017 -0.877
-5.490 -5.702 0.223
-5.490 -5.702 0.223
-5.490 -5.702 0.223
-5.467 -5.702 0.247
-8.582 -4.801 -3.774
-6.673 -5.980 -0.682
-8.767 -4.608 -4.151
-5.413 -5.704 0.301
-6.904 -6.017 -0.877
-5.490 -5.702 0.223
-5.490 -5.702 0.223
-12.239 -4.916 -7.328
-8.770 -4.607 -4.154
-12.246 -4.914 -7.336
-11.741 -5.065 -6.679
-11.741 -5.065 -6.679
-7.189 -5.631 -1.548
-5.492 -5.703 0.222
-5.492 -5.703 0.222
-5.492 -5.703 0.222
-5.492 -5.703 0.222
-8.634 -4.779 -3.848
-11.741 -5.065 -6.679
-8.770 -4.607 -4.154
-4.965 -5.909 0.955
-11.741 -5.065 -6.679
-5.240 -5.778 0.548
-12.226 -4.954 -7.276
-5.065 -5.721 0.666
-8.586 -4.801 -3.778
-8.586 -4.801 -3.778
-11.742 -5.064 -6.681
-11.742 -5.064 -6.681
-8.586 -4.801 -3.778
-8.586 -4.801 -3.778
-8.586 -4.801 -3.778
-4.875 -5.630 0.766
-4.897 -5.590 0.704
-6.673 -5.980 -0.682
-11.742 -5.064 -6.681
-6.905 -6.016 -0.879
-6.905 -6.016 -0.879
-11.742 -5.064 -6.681
-11.849 -4.417 -7.426
-12.176 -4.975 -7.205
-4.956 -5.647 0.702
-12.226 -4.954 -7.276
-11.720 -4.420 -7.294
-12.295 -4.943 -7.356
-11.800 -5.055 -6.747
-11.800 -5.055 -6.747
-8.870 -4.577 -4.284
-11.777 -4.415 -7.356
-4.848 -5.679 0.842
-11.661 -4.433 -7.221
-6.910 -6.013 -0.886
-12.201 -4.925 -7.281
-8.767 -4.607 -4.151
-11.749 -4.418 -7.325
-11.735 -5.066 -6.672
-11.735 -5.066 -6.672
-7.143 -5.675 -1.459
-7.143 -5.675 -1.459
-4.876 -5.629 0.764
-8.842 -4.584 -4.249
-5.486 -5.705 0.229
-5.486 -5.705 0.229
-5.410 -5.704 0.305
-5.486 -5.705 0.229
-6.552 -5.991 -0.550
-6.894 -6.016 -0.868
-11.735 -5.066 -6.672
-5.063 -5.722 0.669
-8.581 -4.801 -3.773
-5.487 -5.705 0.229
-8.767 -4.607 -4.151
-7.278 -5.619 -1.649
-5.148 -5.705 0.568
-4.990 -5.645 0.667
-12.220 -4.955 -7.269
-11.737 -5.065 -6.674
-12.246 -4.914 -7.337
-8.767 -4.607 -4.151
-5.411 -5.703 0.303
-12.220 -4.955 -7.269
-4.956 -5.647 0.703
-7.001 -6.022 -0.969
-6.673 -5.979 -0.682
-6.651 -6.336 -0.304
-5.466 -5.703 0.248
-11.749 -4.417 -7.325
-11.749 -4.417 -7.325
-8.770 -4.607 -4.155
-5.489 -5.705 0.227
-5.489 -5.705 0.227
-11.841 -5.051 -6.793
-4.955 -5.648 0.704
-4.928 -5.901 0.984
-11.750 -4.417 -7.326
-11.844 -4.417 -7.421
-11.742 -5.064 -6.681
-11.742 -5.064 -6.681
-11.742 -5.064 -6.681
-7.001 -6.022 -0.969
-5.146 -5.706 0.571
-4.965 -5.904 0.950
-11.737 -4.418 -7.313
-7.148 -5.675 -1.463
-7.240 -5.666 -1.564
-6.652 -6.336 -0.304
-6.652 -6.336 -0.304
-6.652 -6.336 -0.304
-6.652 -6.336 -0.304
-11.737 -5.066 -6.674
-11.737 -5.066 -6.674
-11.737 -5.066 -6.674
-11.737 -5.066 -6.674
-11.737 -5.066 -6.674
-6.904 -6.017 -0.877
-5.145 -5.706 0.571
-7.162 -5.639 -1.513
-11.737 -5.066 -6.674
-11.737 -5.066 -6.674
-12.226 -4.954 -7.276
-8.585 -4.801 -3.778
-11.742 -5.064 -6.681
-5.064 -5.722 0.668
-4.928 -5.901 0.984
-11.742 -5.065 -6.681
-4.956 -5.647 0.703
-4.956 -5.647 0.703
-5.745 -6.674 0.936
-4.928 -5.901 0.984
-4.928 -5.901 0.984
-8.770 -4.607 -4.155
-5.489 -5.705 0.227
-8.770 -4.607 -4.155
-8.770 -4.607 -4.155
-8.770 -4.607 -4.155
-8.770 -4.607 -4.155
-5.145 -5.713 0.579
-4.965 -5.909 0.955
-5.145 -5.713 0.579
-6.674 -5.979 -0.683
-6.567 -5.991 -0.565
-6.683 -5.984 -0.688
-4.985 -5.649 0.675
-6.905 -6.016 -0.879
-11.742 -5.064 -6.681
-11.742 -5.064 -6.681
-5.064 -5.722 0.668
-7.001 -6.022 -0.969
-4.988 -5.645 0.669
-4.988 -5.645 0.669
-6.651 -6.336 -0.304
-5.146 -5.706 0.570
-11.742 -5.065 -6.681
-8.585 -4.801 -3.778
-4.988 -5.647 0.671
-5.489 -5.705 0.226
-5.146 -5.710 0.575
-5.412 -5.703 0.302
-4.987 -5.647 0.671
-6.566 -5.991 -0.563
-6.673 -5.980 -0.682
-5.406 -5.705 0.310
-5.406 -5.705 0.310
-6.673 -5.980 -0.682
-5.489 -5.705 0.226
-4.987 -5.647 0.671
-6.567 -5.991 -0.564
-5.489 -5.705 0.226
-4.966 -5.907 0.952
-4.966 -5.907 0.952
-11.742 -5.064 -6.681
-5.064 -5.722 0.668
-5.064 -5.722 0.668
-5.064 -5.722 0.668
-4.956 -5.647 0.703
-4.866 -5.630 0.775
-11.742 -5.064 -6.681
-11.742 -5.064 -6.681
-11.742 -5.064 -6.681
-11.742 -5.064 -6.681
-4.928 -5.901 0.984
-11.755 -4.417 -7.332
-4.849 -5.678 0.841
-8.770 -4.607 -4.155
-6.655 -6.336 -0.307
-4.964 -5.909 0.956
-5.656 -6.703 1.055
-8.711 -4.769 -3.935
-5.413 -5.703 0.301
-7.280 -5.620 -1.650
-5.491 -5.703 0.223
-8.767 -4.607 -4.151
-6.904 -6.017 -0.877
-6.904 -6.017 -0.877
-11.737 -5.066 -6.674
-11.737 -5.066 -6.674
-8.582 -4.801 -3.774
-6.673 -5.980 -0.682
-7.163 -5.638 -1.515
-11.734 -4.418 -7.310
-8.767 -4.607 -4.151
-11.737 -5.066 -6.674
-8.582 -4.801 -3.774
-4.875 -5.630 0.766
-6.673 -5.980 -0.682
-6.673 -5.980 -0.682
-4.966 -5.907 0.953
-4.987 -5.647 0.671
-4.987 -5.647 0.671
-6.566 -5.992 -0.563
-4.966 -5.907 0.953
-4.966 -5.907 0.953
-4.987 -5.647 0.671
-4.966 -5.907 0.953
-4.987 -5.647 0.671
-5.489 -5.705 0.227
-6.673 -5.980 -0.682
-11.734 -4.418 -7.310
-12.209 -4.923 -7.291
-5.065 -5.721 0.667
-8.585 -4.801 -3.777
-12.245 -4.915 -7.335
-8.585 -4.801 -3.777
-5.656 -6.703 1.055
-5.489 -5.705 0.226
-5.146 -5.710 0.575
-6.673 -5.980 -0.682
-4.876 -5.630 0.766
-8.769 -4.607 -4.154
-8.585 -4.801 -3.777
-5.146 -5.710 0.575
-4.966 -5.907 0.953
-5.146 -5.710 0.575
-8.585 -4.801 -3.777
-6.905 -6.016 -0.878
-4.988 -5.645 0.669
-5.145 -5.706 0.571
-4.988 -5.645 0.669
-4.964 -5.904 0.951
-4.988 -5.645 0.669
-8.008 -8.165 0.166
-4.988 -5.645 0.669
-4.988 -5.645 0.669
-6.576 -5.994 -0.571
-6.576 -5.994 -0.571
-4.965 -5.904 0.950
-5.146 -5.705 0.570
-5.146 -5.705 0.570
-6.566 -5.991 -0.563
-6.574 -5.995 -0.568
-6.682 -5.984 -0.687
-6.672 -5.979 -0.682
-6.574 -5.995 -0.568
-6.651 -6.336 -0.304
-5.443 -5.704 0.272
-6.672 -5.979 -0.682
-6.672 -5.979 -0.682
-6.672 -5.979 -0.682
-6.672 -5.979 -0.682
-6.672 -5.979 -0.682
-6.672 -5.979 -0.682
-4.988 -5.645 0.669
-6.566 -5.991 -0.563
-6.566 -5.991 -0.563
-5.406 -5.702 0.307
-11.736 -4.418 -7.312
-8.826 -4.589 -4.229
-7.259 -5.625 -1.625
-6.652 -6.336 -0.304
-5.412 -5.703 0.302
-5.412 -5.703 0.302
-4.899 -5.587 0.699
-5.412 -5.703 0.302
-5.147 -5.705 0.568
-4.966 -5.903 0.948