-8.629 -9.924 1.310
-7.669 -9.408 1.740
-6.389 -8.068 1.692
-8.629 -9.927 1.314
-7.604 -9.067 1.477
-8.629 -9.924 1.311
-7.604 -9.068 1.477
-8.629 -9.924 1.311
-8.646 -9.932 1.303
-7.675 -9.406 1.732
-7.605 -9.067 1.475
-7.605 -9.067 1.475
-8.631 -9.923 1.309
-8.631 -9.923 1.309
-8.631 -9.924 1.309
-8.630 -9.926 1.311
-8.630 -9.921 1.307
-7.605 -9.067 1.475
-8.631 -9.923 1.309
-7.987 -9.431 1.449
-7.605 -9.067 1.475
-7.605 -9.066 1.474
-7.345 -9.281 1.939
-7.605 -9.067 1.475
-7.353 -9.416 2.077
-7.605 -9.065 1.473
-5.905 -7.125 1.233
-8.631 -9.923 1.309
-8.352 -10.241 1.904
-7.345 -9.281 1.939
-8.352 -10.241 1.904
-8.631 -9.923 1.309
-8.631 -9.926 1.311
-7.154 -8.561 1.398
-7.605 -9.067 1.475
-7.979 -8.981 1.006
-6.394 -8.067 1.686
-8.631 -9.923 1.309
-8.631 -9.923 1.309
-7.605 -9.067 1.475
-8.631 -9.924 1.309
-7.605 -9.066 1.474
-7.345 -9.281 1.939
-6.394 -8.067 1.686
-8.631 -9.924 1.309
-8.631 -9.924 1.309
-6.511 -8.068 1.569
-7.603 -9.064 1.474
-7.603 -9.064 1.475
-7.603 -9.064 1.475
-8.628 -9.922 1.310
-7.603 -9.062 1.472
-7.599 -8.883 1.275
-8.354 -10.240 1.899
-8.628 -9.922 1.310
-7.978 -8.980 1.006
-6.403 -8.063 1.673
-7.089 -9.408 2.331
-8.628 -9.922 1.310
-7.348 -9.280 1.934
-8.214 -10.000 1.803
-6.403 -8.063 1.673
-8.628 -9.924 1.312
-7.603 -9.064 1.475
-8.628 -9.922 1.310
-8.214 -10.000 1.803
-7.089 -9.409 2.332
-8.214 -10.000 1.803
-7.603 -9.064 1.475
-8.628 -9.923 1.311
-7.670 -9.398 1.728
-7.670 -9.398 1.728
-7.089 -9.408 2.331
-7.978 -8.980 1.006
-8.628 -9.922 1.310
-7.089 -9.408 2.331
-7.603 -9.064 1.475
-7.978 -8.980 1.006
-7.603 -9.064 1.474
-7.603 -9.064 1.475
-7.089 -9.408 2.331
-7.505 -9.334 1.833
-7.782 -9.007 1.228
-7.348 -9.280 1.934
-7.978 -8.980 1.006
-7.060 -9.156 2.109
-7.603 -9.064 1.475
-7.603 -9.064 1.475
-6.402 -8.061 1.671
-7.348 -9.280 1.934
-8.628 -9.920 1.308
-8.214 -10.000 1.803
-8.214 -10.002 1.806
-8.628 -9.922 1.310
-7.978 -8.980 1.006
-8.628 -9.923 1.311
-6.238 -7.249 1.023
-7.310 -8.850 1.549
-7.980 -8.980 1.004
-6.403 -8.063 1.672
-7.603 -9.064 1.474
-7.603 -9.064 1.474
-7.980 -8.980 1.004
-8.213 -10.000 1.803
-8.213 -10.000 1.803
-8.357 -10.239 1.897
-7.671 -9.398 1.728
-8.627 -9.924 1.313
-8.627 -9.916 1.305
-5.324 -7.603 2.291
-7.980 -8.980 1.004
-8.627 -9.924 1.312
-5.481 -6.625 1.162
-7.986 -9.430 1.449
-8.357 -10.239 1.896
-8.627 -9.922 1.311
-8.627 -9.925 1.313
-8.627 -9.922 1.311
-7.603 -9.064 1.474
-8.627 -9.922 1.311
-7.980 -8.980 1.004
-5.491 -6.624 1.151
-6.403 -8.063 1.672
-7.603 -9.062 1.472
-7.671 -9.398 1.728
-7.603 -9.065 1.475
-7.727 -8.992 1.268
-7.603 -9.064 1.474
-8.357 -10.239 1.897
-8.627 -9.922 1.311
-6.148 -7.459 1.326
-7.507 -9.334 1.831
-6.403 -8.063 1.672
-7.980 -8.980 1.004
-8.627 -9.922 1.311
-6.403 -8.063 1.672
-7.603 -9.064 1.474
-7.352 -9.280 1.930
-5.916 -7.120 1.218
-5.465 -6.631 1.185
-8.627 -9.923 1.312
-8.627 -9.922 1.311
-5.916 -7.120 1.218
-6.036 -7.216 1.193
-7.603 -9.064 1.475
-8.627 -9.922 1.310
-6.286 -7.329 1.057
-8.628 -9.924 1.312
-8.628 -9.922 1.310
-8.355 -10.240 1.899
-7.979 -8.980 1.005
-6.238 -7.248 1.023
-8.627 -9.923 1.311
-7.603 -9.064 1.474
-7.603 -9.065 1.475
-7.986 -9.430 1.449
-7.603 -9.064 1.474
-8.213 -10.000 1.803
-8.627 -9.922 1.311
-7.603 -9.062 1.472
-7.739 -8.993 1.257
-7.937 -9.429 1.497
-7.209 -8.224 1.027
-7.603 -9.064 1.474
-7.603 -9.064 1.474
-8.627 -9.926 1.315
-6.403 -8.063 1.672
-6.238 -7.248 1.023
-7.980 -8.980 1.004
-8.357 -10.239 1.897
-7.603 -9.063 1.474
-6.403 -8.063 1.672
-7.603 -9.059 1.469
-5.764 -7.249 1.490
-7.214 -8.228 1.027
-5.916 -7.120 1.218
-7.203 -8.237 1.045
-6.238 -7.248 1.023
-6.281 -8.054 1.787
-8.213 -10.000 1.803
-8.357 -10.239 1.897
-7.603 -9.064 1.474
-7.671 -9.398 1.728
-7.980 -8.980 1.004
-7.980 -8.980 1.004
-7.603 -9.065 1.475
-7.739 -8.993 1.257
-8.357 -10.239 1.897
-8.213 -10.000 1.803
-6.403 -8.063 1.672
-8.357 -10.242 1.899
-6.403 -8.063 1.672
-6.403 -8.063 1.672
-5.764 -7.248 1.490
-8.213 -10.000 1.803
-8.200 -10.001 1.818
-6.238 -7.248 1.023
-8.213 -10.000 1.803
-8.213 -10.000 1.803
-7.318 -8.920 1.614
-8.627 -9.924 1.312
-8.357 -10.239 1.897
-7.689 -9.382 1.707
-7.455 -9.013 1.574
-8.357 -10.239 1.896
-8.627 -9.921 1.310
-7.215 -8.222 1.019
-8.627 -9.924 1.312
-7.317 -8.898 1.592
-8.357 -10.239 1.896
-8.627 -9.922 1.311
-7.323 -8.217 0.911
-8.627 -9.922 1.311
-6.403 -8.063 1.672
-8.627 -9.922 1.311
-7.603 -9.064 1.474
-8.627 -9.922 1.311
-8.357 -10.239 1.896
-7.712 -9.461 1.751
-6.238 -7.248 1.023
-8.357 -10.239 1.896
-7.739 -8.993 1.257
-7.603 -9.064 1.474
-8.357 -10.239 1.896
-6.403 -8.063 1.672
-8.627 -9.927 1.316
-7.603 -9.064 1.474
-6.403 -8.063 1.672
-6.283 -8.055 1.786
-8.627 -9.922 1.311
-6.238 -7.249 1.023
-7.603 -9.064 1.474
-6.036 -7.216 1.193
-6.023 -7.270 1.256
-7.979 -8.980 1.005
-8.214 -10.000 1.802
-8.200 -10.001 1.818
-8.628 -9.922 1.310
-6.285 -7.332 1.061
-7.077 -9.413 2.348
-7.047 -9.161 2.127
-7.986 -9.431 1.450
-7.208 -8.224 1.029
-7.342 -9.282 1.941
-8.349 -10.242 1.907
-6.271 -8.062 1.805
-8.630 -9.924 1.310
-8.349 -10.242 1.907
-5.593 -6.766 1.190
-7.207 -8.228 1.033
-8.630 -9.924 1.310
-7.978 -8.980 1.006
-6.526 -8.643 2.113
-6.285 -7.330 1.059
-8.349 -10.242 1.907
-7.605 -9.065 1.474
-5.483 -6.627 1.162
-8.630 -9.924 1.310
-7.605 -9.067 1.476
-6.391 -8.068 1.690
-7.605 -9.067 1.475
-7.342 -9.282 1.941
-7.736 -8.993 1.260
-7.605 -9.067 1.475
-7.736 -8.993 1.260
-5.323 -7.608 2.298
-8.349 -10.242 1.907
-8.349 -10.242 1.907
-6.238 -7.248 1.022
-7.215 -8.225 1.023
-7.669 -9.408 1.740
-7.937 -9.429 1.497
-7.979 -8.984 1.009
-7.617 -9.068 1.464
-7.051 -9.159 2.121
-7.675 -9.406 1.732
-8.630 -9.923 1.309
-5.106 -6.351 1.262
-8.630 -9.923 1.309
-6.036 -7.216 1.193
-7.207 -8.228 1.034
-6.395 -8.067 1.685
-5.648 -6.792 1.162
-8.354 -10.241 1.901
-7.209 -8.223 1.027
-7.606 -9.067 1.475
-7.606 -9.066 1.474
-5.792 -7.298 1.521
-7.979 -8.979 1.004
-8.631 -9.923 1.308
-8.631 -9.923 1.308
-7.676 -9.406 1.732
-7.988 -9.431 1.448
-7.326 -8.216 0.907
-7.606 -9.067 1.474
-6.396 -8.067 1.684
-7.326 -8.216 0.907
-8.631 -9.923 1.308
-7.082 -9.410 2.340
-8.352 -10.241 1.903
-8.352 -10.241 1.903
-6.486 -8.666 2.183
-8.631 -9.923 1.308
-7.720 -9.485 1.768
-7.317 -8.900 1.595
-6.396 -8.067 1.684
-8.631 -9.923 1.308
-8.352 -10.241 1.903
-5.484 -6.624 1.158
-8.631 -9.923 1.308
-7.326 -8.216 0.907
-7.979 -8.981 1.005
-6.286 -7.329 1.057
-7.464 -8.951 1.502
-7.052 -9.160 2.121
-5.910 -7.125 1.229
-5.792 -7.298 1.521
-8.631 -9.923 1.308
-7.738 -8.993 1.258
-7.052 -9.159 2.121
-5.910 -7.125 1.228
-6.024 -7.270 1.255
-7.727 -8.992 1.269
-8.631 -9.923 1.309
-6.024 -7.270 1.255
-6.238 -7.248 1.022
-6.923 -8.083 1.176
-7.051 -9.159 2.121
-7.082 -9.416 2.347
-7.988 -9.431 1.448
-8.354 -10.241 1.901
-7.606 -9.066 1.474
-8.198 -10.000 1.819
-8.630 -9.920 1.306
-7.051 -9.159 2.121
-7.675 -9.406 1.732
-7.318 -8.907 1.600
-5.493 -6.624 1.150
-7.980 -8.980 1.004
-7.082 -9.414 2.344
-7.319 -8.917 1.609
-6.395 -8.066 1.684
-8.630 -9.923 1.309
-7.297 -9.650 2.358
-5.493 -6.624 1.150
-8.354 -10.241 1.901
-8.211 -9.999 1.804
-8.354 -10.241 1.901
-6.238 -7.248 1.022
-7.980 -8.980 1.004
-8.354 -10.241 1.901
-7.348 -9.281 1.935
-4.591 -5.614 1.040
-8.211 -9.999 1.804
-6.395 -8.067 1.685
-8.630 -9.923 1.309
-7.606 -9.063 1.471
-8.354 -10.241 1.901
-7.606 -9.067 1.474
-6.274 -8.058 1.799
-8.630 -9.923 1.309
-5.493 -6.624 1.150
-6.238 -7.248 1.022
-7.980 -8.981 1.005
-6.238 -7.248 1.022
-5.916 -7.122 1.220
-8.354 -10.241 1.901
-8.630 -9.923 1.309
-6.395 -8.067 1.685
-7.606 -9.067 1.474
-6.528 -8.639 2.107
-6.238 -7.248 1.022
-6.036 -7.216 1.193
-8.630 -9.923 1.309
-7.319 -8.921 1.614
-8.630 -9.935 1.321
-7.740 -8.993 1.257
-8.630 -9.923 1.309
-6.395 -8.067 1.685
-6.476 -8.650 2.171
-7.209 -8.223 1.027
-7.980 -8.980 1.004
-8.630 -9.923 1.309
-8.354 -10.241 1.901
-7.606 -9.067 1.474
-6.238 -7.248 1.022
-8.630 -9.923 1.309
-8.630 -9.924 1.310
-5.646 -6.790 1.162
-8.354 -10.241 1.901
-4.591 -5.614 1.040
-8.354 -10.241 1.901
-6.395 -8.067 1.685
-8.630 -9.917 1.303
-5.493 -6.624 1.150
-6.395 -8.067 1.685
-6.840 -7.983 1.159
-6.238 -7.248 1.022
-6.968 -7.940 0.983
-7.316 -8.947 1.642
-8.354 -10.241 1.901
-7.606 -9.064 1.472
-7.348 -9.281 1.935
-8.630 -9.927 1.313
-8.630 -9.923 1.309
-7.213 -8.225 1.025
-6.395 -8.067 1.685
-8.354 -10.241 1.901
-7.315 -8.873 1.569
-6.238 -7.248 1.022
-8.630 -9.923 1.309
-6.047 -7.219 1.184
-5.922 -7.122 1.214
-7.326 -8.216 0.908
-8.354 -10.241 1.901
-6.395 -8.067 1.684
-8.630 -9.923 1.310
-8.630 -9.923 1.310
-7.319 -8.917 1.610
-6.029 -7.270 1.250
-8.352 -10.242 1.904
-6.246 -7.245 1.012
-7.769 -9.499 1.743
-6.044 -7.214 1.183
-8.630 -9.924 1.310
-6.395 -8.066 1.683
-5.665 -7.414 1.762
-7.605 -9.077 1.485
-8.630 -9.923 1.310
-8.213 -9.999 1.802
-7.722 -9.486 1.767
-6.246 -7.245 1.012
-7.083 -9.414 2.344
-8.630 -9.923 1.310
-7.988 -9.431 1.448
-6.187 -7.998 1.818
-7.349 -9.281 1.934
-8.630 -9.924 1.310
-6.395 -8.067 1.684
-7.771 -9.499 1.741
-7.051 -9.159 2.121
-7.051 -9.159 2.121
-8.630 -9.923 1.310
-7.310 -8.918 1.619
-5.653 -6.792 1.157
-7.939 -9.429 1.495
-7.988 -9.431 1.448
-8.630 -9.923 1.310
-8.630 -9.923 1.310
-8.354 -10.241 1.901
-7.320 -8.217 0.914
-7.051 -9.159 2.121
-5.653 -6.789 1.155
-5.640 -6.778 1.157
-7.320 -8.217 0.913
-7.784 -9.008 1.227
-7.740 -8.993 1.257
-7.606 -9.067 1.474
-8.630 -9.923 1.309
-5.499 -6.624 1.142
-5.499 -6.624 1.142
-5.499 -6.624 1.142
-5.801 -7.298 1.513
-6.527 -8.639 2.109
-6.044 -7.222 1.192
-8.631 -9.924 1.309
-8.631 -9.923 1.309
-7.607 -9.069 1.476
-8.631 -9.924 1.309
-8.352 -10.241 1.903
-7.207 -8.225 1.030
-7.052 -9.160 2.121
-6.246 -7.245 1.012
-5.327 -7.606 2.292
-7.740 -8.993 1.257
-8.630 -9.923 1.310
-6.488 -8.669 2.184
-6.044 -7.227 1.195
-6.518 -8.655 2.133
-7.979 -8.979 1.005
-7.198 -8.245 1.059
-7.786 -9.000 1.218
-7.987 -9.431 1.448
-6.187 -7.998 1.818
-5.325 -7.607 2.295
-6.187 -7.998 1.818
-5.566 -7.117 1.568
-8.630 -9.924 1.309
-7.675 -9.406 1.731
-6.148 -6.534 0.403
-5.644 -6.778 1.152
-6.969 -7.933 0.975
-6.292 -7.328 1.051
-7.938 -9.430 1.497
-8.631 -9.924 1.309
-6.275 -8.061 1.800
-7.322 -8.217 0.912
-7.352 -9.110 1.728
-8.631 -9.924 1.309
-7.738 -8.993 1.258
-6.396 -8.067 1.684
-7.975 -8.974 1.004
-5.598 -6.765 1.184
-7.938 -9.430 1.497
-8.352 -10.241 1.903
-7.607 -9.067 1.473
-8.631 -9.923 1.309
-6.043 -7.223 1.192
-7.720 -9.486 1.769
-6.246 -7.245 1.012
-7.345 -8.214 0.886
-5.653 -6.788 1.153
-5.653 -6.791 1.157
-7.606 -9.065 1.472
-8.354 -10.241 1.901
-6.489 -8.666 2.180
-6.044 -7.214 1.183
-8.354 -10.241 1.901
-7.606 -9.067 1.474
-8.630 -9.927 1.314
-8.630 -9.924 1.310
-7.309 -8.848 1.553
-8.630 -9.923 1.310
-8.630 -9.910 1.296
-8.630 -9.923 1.310
-6.394 -8.293 1.894
-8.630 -9.923 1.310
-5.639 -6.776 1.155
-8.630 -9.923 1.310
-6.044 -7.214 1.183
-7.209 -8.226 1.030
-6.489 -8.666 2.180
-5.499 -6.624 1.143
-5.922 -7.122 1.214
-8.630 -9.924 1.310
-8.354 -10.241 1.901
-8.354 -10.241 1.901
-6.489 -8.666 2.180
-8.630 -9.928 1.314
-7.606 -9.067 1.474
-5.653 -6.790 1.156
-5.944 -7.318 1.386
-5.109 -6.038 0.947
-6.395 -8.067 1.684
-7.606 -9.067 1.474
-6.187 -7.999 1.818
-7.606 -9.067 1.474
-6.496 -8.666 2.173
-5.922 -7.326 1.415
-8.354 -10.241 1.901
-5.242 -7.104 1.880
-6.395 -8.067 1.684
-7.308 -8.821 1.522
-8.630 -9.923 1.310
-7.740 -8.993 1.257
-6.118 -7.902 1.796
-7.606 -9.057 1.465
-7.676 -9.406 1.731
-5.212 -6.789 1.563
-8.630 -9.923 1.310
-7.209 -8.223 1.027
-6.044 -7.214 1.183
-7.785 -9.008 1.226
-6.529 -8.639 2.107
-8.353 -10.241 1.902
-5.242 -6.364 1.137
-7.209 -8.223 1.027
-8.354 -10.241 1.901
-7.939 -9.430 1.495
-6.246 -7.245 1.012
-7.606 -9.066 1.474
-7.246 -8.685 1.451
-8.630 -9.923 1.310
-8.630 -9.923 1.310
-7.988 -9.431 1.448
-6.274 -8.058 1.798
-7.351 -8.213 0.880
-5.653 -6.787 1.152
-7.083 -9.414 2.343
-8.199 -10.000 1.818
-7.320 -8.217 0.913
-8.629 -9.923 1.309
-6.403 -8.292 1.884
-6.395 -8.067 1.684
-8.354 -10.241 1.901
-6.395 -8.067 1.684
-8.630 -9.923 1.310
-5.922 -7.121 1.214
-6.395 -8.067 1.684
-6.047 -7.219 1.184
-6.395 -8.067 1.684
-5.653 -6.790 1.155
-5.729 -6.718 1.002
-5.653 -6.790 1.155
-6.275 -8.058 1.798
-6.044 -7.214 1.183
-7.699 -9.325 1.639
-8.630 -9.923 1.310
-5.653 -6.790 1.156
-5.448 -6.662 1.232
-7.769 -9.499 1.743
-6.187 -7.998 1.818
-5.944 -7.319 1.386
-7.783 -9.010 1.230
-6.044 -7.214 1.183
-7.606 -9.067 1.474
-8.630 -9.920 1.306
-8.354 -10.241 1.901
-6.010 -7.183 1.170
-7.351 -8.213 0.880
-7.209 -8.223 1.027
-6.292 -7.328 1.051
-8.352 -10.241 1.903
-7.327 -8.216 0.906
-8.352 -10.241 1.903
-8.631 -9.924 1.309
-7.607 -9.068 1.474
-5.263 -7.747 2.490
-5.267 -6.267 1.016
-6.047 -7.229 1.193
-8.631 -9.924 1.309
-7.605 -9.058 1.465
-5.491 -6.626 1.153
-6.044 -7.223 1.192
-8.352 -10.241 1.903
-6.967 -7.955 0.997
-6.969 -7.932 0.974
-6.396 -8.067 1.684
-8.200 -10.000 1.817
-5.609 -6.483 0.888
-8.631 -9.922 1.308
-7.607 -9.067 1.473
-5.267 -6.267 1.016
-5.251 -6.368 1.133
-7.607 -9.068 1.474
-7.309 -8.907 1.609
-5.251 -6.369 1.134
-5.919 -7.334 1.427
-6.188 -7.998 1.816
-7.988 -9.431 1.449
-6.527 -8.639 2.109
-6.396 -8.067 1.684
-8.631 -9.924 1.309
-6.047 -7.229 1.193
-8.352 -10.242 1.903
-8.631 -9.926 1.311
-8.352 -10.242 1.903
-5.571 -7.072 1.517
-5.571 -7.066 1.511
-8.631 -9.923 1.309
-7.720 -9.486 1.770
-5.631 -6.778 1.165
-7.346 -9.281 1.938
-7.988 -9.430 1.448
-8.631 -9.924 1.309
-8.352 -10.241 1.903
-6.527 -8.639 2.109
-7.237 -8.229 1.005
-7.607 -9.067 1.474
-7.607 -9.067 1.474
-6.275 -8.059 1.798
-7.328 -9.268 1.936
-5.274 -6.582 1.323
-7.607 -9.067 1.473
-8.631 -9.924 1.309
-7.245 -8.223 0.991
-5.609 -6.483 0.888
-7.607 -9.067 1.473
-5.108 -6.353 1.262
-6.047 -7.229 1.193
-7.606 -9.060 1.466
-7.938 -9.429 1.497
-7.317 -8.913 1.607
-4.259 -5.331 1.089
-5.915 -7.124 1.223
-7.988 -9.431 1.448
-5.267 -6.267 1.016
-8.200 -10.000 1.817
-6.396 -8.067 1.684
-8.351 -10.242 1.905
-5.267 -6.267 1.016
-6.393 -8.294 1.895
-8.214 -9.999 1.802
-5.646 -6.796 1.168
-5.491 -6.626 1.153
-5.646 -6.797 1.169
-6.043 -7.223 1.192
-7.052 -9.160 2.121
-5.598 -6.764 1.184
-8.631 -9.924 1.309
-7.434 -8.765 1.312
-6.969 -7.929 0.972
-7.327 -8.216 0.906
-6.043 -7.223 1.192
-7.980 -8.979 1.003
-8.631 -9.924 1.309
-5.646 -6.796 1.168
-5.646 -6.795 1.167
-6.486 -8.666 2.183
-7.731 -9.382 1.665
-6.047 -7.229 1.193
-5.257 -6.269 1.028
-8.352 -10.241 1.903
-7.052 -9.159 2.121
-8.631 -9.923 1.308
-5.627 -6.519 0.904
-5.536 -7.076 1.557
-6.486 -8.666 2.183
-5.641 -6.772 1.149
-6.473 -8.649 2.173
-8.631 -9.924 1.309
-6.043 -7.223 1.192
-8.345 -10.238 1.909
-6.043 -7.223 1.192
-7.952 -9.421 1.479
-5.168 -6.024 0.872
-7.604 -9.068 1.477
-5.097 -6.043 0.964
-6.269 -8.059 1.804
-5.390 -6.652 1.280
-6.390 -8.068 1.691
-7.342 -9.281 1.942
-5.116 -6.334 1.235
-5.081 -6.044 0.980
-5.229 -6.366 1.154
-5.937 -7.326 1.401
-8.629 -9.924 1.311
-5.566 -7.061 1.512
-8.199 -10.000 1.818
-7.342 -9.282 1.942
-7.345 -8.214 0.886
-8.629 -9.921 1.308
-5.566 -7.064 1.514
-5.642 -6.795 1.171
-5.642 -6.799 1.175
-5.642 -6.796 1.172
-8.629 -9.921 1.308
-7.719 -9.490 1.774
-8.629 -9.924 1.311
-7.604 -9.068 1.477
-5.642 -6.795 1.171
-5.485 -6.623 1.157
-8.629 -9.924 1.311
-5.246 -6.368 1.138
-8.629 -9.923 1.310
-8.629 -9.923 1.311
-6.973 -7.918 0.957
-6.526 -8.643 2.114
-7.325 -8.216 0.908
-5.261 -6.266 1.022
-6.044 -7.227 1.195
-5.197 -6.782 1.597
-7.077 -9.413 2.348
-8.184 -9.916 1.737
-5.251 -6.268 1.033
-6.967 -7.936 0.980
-6.044 -7.227 1.195
-6.269 -8.060 1.805
-6.182 -8.000 1.825
-7.350 -8.213 0.880
-6.269 -8.056 1.802
-8.629 -9.924 1.311
-5.842 -6.416 0.587
-6.390 -8.068 1.691
-5.246 -6.368 1.138
-5.494 -7.001 1.526
-8.629 -9.924 1.311
-7.604 -9.069 1.478
-5.228 -6.366 1.154
-5.910 -7.124 1.228
-8.348 -10.242 1.908
-5.626 -6.777 1.170
-6.526 -8.643 2.114
-8.629 -9.924 1.311
-5.386 -7.284 1.906
-7.325 -8.216 0.908
-5.410 -6.638 1.247
-5.640 -6.774 1.153
-5.097 -6.044 0.964
-8.208 -9.970 1.778
-5.229 -6.366 1.154
-5.228 -6.367 1.154
-5.246 -6.368 1.138
-8.199 -10.000 1.818
-5.626 -6.519 0.906
-6.040 -7.221 1.194
-5.228 -6.367 1.154
-6.044 -7.227 1.195
-6.390 -8.068 1.691
-6.506 -8.068 1.574
-5.641 -6.794 1.170
-6.398 -8.064 1.679
-8.626 -9.923 1.313
-6.043 -7.227 1.195
-8.351 -10.241 1.904
-8.626 -9.922 1.312
-5.222 -6.366 1.159
-5.641 -6.796 1.172
-5.095 -6.043 0.966
-7.348 -8.214 0.883
-6.277 -8.056 1.794
-5.230 -6.366 1.152
-8.626 -9.922 1.312
-6.040 -7.221 1.194
-6.398 -8.064 1.679
-7.602 -9.063 1.475
-7.709 -9.462 1.757
-6.969 -7.939 0.982
-7.322 -8.895 1.586
-6.398 -8.064 1.679
-6.040 -7.221 1.194
-5.937 -7.325 1.401
-6.842 -7.983 1.157
-7.026 -9.400 2.383
-6.016 -7.222 1.218
-5.910 -7.122 1.226
-6.398 -8.064 1.679
-5.609 -6.483 0.888
-6.279 -8.057 1.793
-5.609 -6.483 0.888
-6.279 -8.057 1.793
-6.040 -7.222 1.195
-5.937 -7.325 1.401
-6.020 -7.227 1.219
-5.117 -6.333 1.232
-8.346 -9.971 1.642
-8.628 -9.922 1.311
-6.040 -7.221 1.194
-7.060 -9.156 2.109
-5.246 -6.368 1.138
-6.040 -7.221 1.194
-5.095 -6.043 0.965
-5.221 -6.366 1.161
-8.628 -9.922 1.311
-6.481 -8.644 2.159
-8.348 -10.225 1.891
-5.758 -7.259 1.506
-5.641 -6.795 1.172
-5.409 -6.637 1.246
-7.347 -9.414 2.080
-4.216 -5.161 0.959
-7.386 -8.705 1.323
-8.332 -9.970 1.655
-8.627 -9.924 1.313
-5.221 -6.366 1.160
-6.536 -8.634 2.094
-5.956 -5.908 -0.034
-6.039 -7.221 1.195
-5.246 -6.368 1.138
-6.040 -7.221 1.194
-5.758 -7.258 1.506
-6.040 -7.221 1.194
-5.709 -7.148 1.456
-5.971 -7.245 1.271
-8.628 -9.925 1.313
-5.221 -6.366 1.161
-6.020 -7.228 1.219
-8.353 -10.240 1.901
-6.403 -8.064 1.673
-5.781 -6.097 0.331
-6.403 -8.063 1.673
-5.387 -7.264 1.885
-6.092 -6.054 -0.024
-5.861 -7.281 1.424
-4.930 -6.302 1.388
-7.603 -9.063 1.473
-6.019 -7.228 1.220
-8.624 -9.909 1.300
-5.221 -6.365 1.160
-6.092 -6.051 -0.027
-6.281 -8.057 1.790
-6.281 -8.057 1.790
-6.403 -8.063 1.673
-8.211 -9.917 1.712
-8.201 -10.001 1.817
-6.016 -7.222 1.219
-6.394 -8.293 1.894
-6.039 -7.223 1.197
-5.640 -6.792 1.169
-8.627 -9.929 1.317
-8.201 -10.001 1.817
-5.221 -6.366 1.161
-6.975 -7.928 0.965
-6.403 -8.063 1.673
-6.039 -7.221 1.195
-6.952 -8.090 1.154
-6.040 -7.221 1.194
-4.911 -6.304 1.410
-6.040 -7.221 1.194
-5.433 -7.268 1.842
-8.627 -9.923 1.312
-5.229 -6.366 1.154
-5.758 -7.259 1.506
-5.229 -6.366 1.154
-5.184 -6.284 1.116
-7.979 -8.980 1.006
-5.845 -7.313 1.479
-6.040 -7.221 1.194
-6.481 -8.644 2.159
-4.350 -5.349 1.017
-5.221 -6.366 1.161
-6.016 -7.222 1.218
-6.043 -7.227 1.195
-7.603 -9.064 1.474
-5.625 -6.778 1.172
-6.043 -7.227 1.195
-5.260 -6.268 1.025
-6.403 -8.063 1.673
-7.782 -9.007 1.229
-6.020 -7.228 1.219
-5.832 -7.331 1.494
-8.354 -10.240 1.900
-5.325 -7.602 2.290
-7.329 -8.213 0.902
-6.040 -7.221 1.194
-6.124 -8.091 1.978
-5.246 -6.368 1.139
-7.709 -9.453 1.748
-5.626 -6.777 1.170
-5.530 -7.071 1.558
-6.043 -7.227 1.195
-5.758 -7.259 1.506
-6.403 -8.063 1.672
-6.040 -7.221 1.194
-5.831 -6.636 0.823
-8.554 -10.076 1.535
-5.095 -6.045 0.967
-5.916 -7.332 1.428
-6.536 -8.634 2.094
-5.242 -7.049 1.823
-6.403 -8.063 1.673
-5.118 -6.333 1.231
-6.043 -7.227 1.195
-5.530 -7.073 1.560
-8.354 -10.240 1.900
-6.016 -7.222 1.218
-6.040 -7.221 1.194
-6.394 -8.293 1.894
-8.354 -10.243 1.904
-5.222 -6.366 1.160
-5.221 -6.364 1.159
-5.641 -6.793 1.170
-7.729 -9.396 1.679
-5.758 -7.258 1.506
-6.403 -8.063 1.673
-5.641 -6.793 1.170
-5.221 -6.366 1.161
-7.907 -9.438 1.526
-6.281 -8.054 1.788
-5.641 -6.795 1.172
-5.758 -7.259 1.506
-5.623 -6.764 1.159
-5.623 -6.786 1.181
-5.637 -6.796 1.176
-5.637 -6.789 1.170
-7.604 -9.067 1.477
-6.526 -8.643 2.114
-6.271 -8.061 1.804
-5.234 -7.029 1.812
-5.529 -7.072 1.560
-5.754 -7.260 1.511
-6.269 -8.060 1.805
-6.009 -7.224 1.228
-4.976 -5.958 1.000
-6.269 -8.060 1.805
-5.251 -6.268 1.034
-6.040 -7.221 1.194
-6.429 -8.554 2.118
-4.349 -5.349 1.018
-4.297 -5.175 0.892
-7.778 -9.499 1.734
-4.909 -6.304 1.412
-8.629 -9.923 1.310
-6.040 -7.221 1.194
-7.238 -8.229 1.004
-5.626 -6.778 1.171
-6.020 -7.227 1.219
-6.040 -7.221 1.194
-6.269 -8.060 1.805
-5.081 -6.036 0.972
-7.604 -9.067 1.476
-5.221 -6.366 1.161
-6.488 -8.669 2.185
-5.081 -6.046 0.982
-4.909 -6.302 1.410
-5.388 -6.977 1.603
-6.390 -8.068 1.691
-5.221 -6.365 1.160
-5.759 -7.259 1.506
-6.040 -7.220 1.193
-5.221 -6.366 1.161
-6.040 -7.221 1.194
-6.269 -8.060 1.805
-5.485 -6.621 1.155
-5.176 -6.284 1.125
-7.719 -9.492 1.776
-5.759 -7.259 1.506
-5.626 -6.775 1.168
-6.472 -8.653 2.177
-5.910 -7.124 1.228
-5.220 -6.366 1.162
-6.040 -7.221 1.193
-7.719 -9.500 1.785
-4.909 -6.302 1.409
-5.490 -6.435 0.957
-6.526 -8.643 2.114
-6.271 -8.061 1.804
-6.389 -8.067 1.690
-5.221 -6.366 1.161
-5.564 -7.201 1.649
-7.207 -8.223 1.029
-7.651 -9.757 2.111
-5.910 -7.124 1.228
-6.390 -8.068 1.691
-5.882 -7.126 1.258
-8.348 -10.242 1.908
-5.221 -6.358 1.154
-5.246 -6.368 1.138
-5.626 -6.777 1.170
-5.221 -6.365 1.160
-7.719 -9.490 1.775
-6.271 -8.061 1.804
-5.759 -7.259 1.506
-5.540 -7.096 1.567
-6.269 -8.059 1.805
-5.220 -6.367 1.162
-8.041 -10.254 2.227
-8.348 -10.243 1.909
-4.910 -6.301 1.407
-4.985 -6.280 1.312
-5.741 -7.256 1.520
-6.488 -8.670 2.186
-5.221 -6.365 1.160
-5.246 -6.367 1.137
-4.218 -5.169 0.964
-5.821 -6.663 0.860
-5.626 -6.777 1.170
-5.910 -7.124 1.228
-5.625 -6.779 1.172
-5.220 -6.366 1.162
-5.220 -6.367 1.162
-4.909 -6.303 1.410
-5.561 -7.800 2.170
-4.218 -5.166 0.961
-5.531 -7.069 1.555
-6.269 -8.060 1.805
-4.349 -5.349 1.018
-5.626 -6.778 1.171
-6.017 -7.222 1.218
-5.176 -6.284 1.125
-6.390 -8.068 1.691
-5.082 -6.973 1.908
-5.176 -6.287 1.128
-7.112 -8.244 1.115
-5.530 -7.075 1.562
-7.207 -8.225 1.031
-6.017 -7.222 1.218
-5.221 -6.366 1.161
-4.297 -5.167 0.884
-5.075 -6.045 0.988
-6.020 -7.227 1.219
-6.017 -7.221 1.218
-5.626 -6.778 1.171
-8.199 -10.000 1.818
-8.199 -10.000 1.818
-8.199 -10.000 1.818
-8.199 -10.000 1.818
-8.199 -10.000 1.818
-8.498 -10.009 1.528
-7.315 -8.917 1.614
-8.204 -10.002 1.815
-7.780 -9.008 1.232
-8.204 -10.002 1.815
-8.218 -10.001 1.800
-7.502 -9.334 1.835
-8.552 -10.350 1.810
-7.767 -9.502 1.747
-7.204 -8.225 1.034
-8.498 -10.009 1.528
-7.315 -8.917 1.614
-8.552 -10.350 1.810
-8.552 -10.350 1.810
-7.846 -9.495 1.661
-8.651 -10.351 1.713
-8.552 -10.349 1.810
-8.651 -10.351 1.713
-7.767 -9.501 1.747
-7.317 -8.217 0.918
-8.203 -10.002 1.816
-8.203 -10.002 1.816
-7.767 -9.501 1.747
-7.203 -8.230 1.041
-8.651 -10.351 1.713
-6.964 -7.935 0.982
-8.203 -10.002 1.816
-8.203 -10.002 1.816
-7.767 -9.501 1.747
-6.964 -7.945 0.991
-7.767 -9.501 1.747
-7.767 -9.501 1.747
-7.767 -9.501 1.747
-7.767 -9.501 1.747
-7.317 -8.217 0.918
-7.767 -9.501 1.747
-8.203 -10.002 1.816
-8.552 -10.349 1.810
-8.203 -10.002 1.816
-7.767 -9.501 1.747
-6.963 -7.951 0.997
-8.203 -10.002 1.816
-7.767 -9.501 1.747
-7.767 -9.501 1.747
-7.767 -9.501 1.747
-7.767 -9.501 1.747
-7.689 -9.099 1.424
-8.552 -10.349 1.810
-7.204 -8.224 1.033
-6.811 -7.987 1.191
-7.767 -9.501 1.747
-8.203 -10.002 1.816
-7.767 -9.501 1.747
-7.055 -8.011 0.956
-7.689 -9.099 1.424
-8.552 -10.349 1.810
-7.767 -9.501 1.747
-7.689 -9.099 1.424
-7.767 -9.501 1.747
-7.687 -9.383 1.710
-8.552 -10.349 1.810
-7.317 -8.218 0.918
-8.203 -10.002 1.816
-6.963 -7.946 0.993
-8.552 -10.349 1.810
-7.203 -8.216 1.026
-7.687 -9.383 1.710
-7.689 -9.099 1.424
-6.919 -8.084 1.181
-7.689 -9.099 1.424
-7.689 -9.099 1.424
-7.689 -9.099 1.424
-7.687 -9.383 1.710
-7.201 -8.234 1.047
-7.204 -8.224 1.033
-7.767 -9.501 1.747
-7.204 -8.224 1.033
-7.767 -9.501 1.747
-7.935 -9.430 1.501
-7.767 -9.501 1.747
-7.687 -9.383 1.710
-8.203 -10.002 1.816
-7.767 -9.501 1.747
-8.203 -10.002 1.816
-7.195 -8.204 1.019
-6.962 -7.964 1.009
-6.962 -7.971 1.016
-7.317 -8.217 0.918
-7.689 -9.099 1.424
-7.689 -9.099 1.424
-7.767 -9.501 1.747
-7.767 -9.501 1.747
-6.919 -8.084 1.181
-6.919 -8.084 1.181
-7.767 -9.501 1.747
-7.687 -9.383 1.710
-7.204 -8.224 1.033
-6.919 -8.084 1.181
-7.689 -9.100 1.424
-7.203 -8.223 1.034
-7.203 -8.226 1.036
-8.552 -10.349 1.810
-7.723 -8.993 1.273
-7.767 -9.502 1.748
-7.204 -8.225 1.034
-7.317 -8.217 0.918
-7.705 -9.382 1.691
-7.203 -8.217 1.027
-6.919 -8.084 1.181
-8.552 -10.349 1.810
-8.552 -10.349 1.810
-6.964 -7.937 0.984
-7.689 -9.099 1.424
-7.705 -9.382 1.691
-7.689 -9.099 1.424
-8.552 -10.349 1.810
-7.689 -9.099 1.424
-7.707 -9.100 1.407
-7.204 -8.225 1.033
-7.317 -8.217 0.918
-7.204 -8.226 1.035
-7.204 -8.224 1.033
-7.709 -9.380 1.685
-7.931 -9.426 1.500
-7.690 -9.098 1.421
-6.835 -7.986 1.167
-7.770 -9.499 1.742
-7.208 -8.223 1.029
-8.199 -10.000 1.818
-8.552 -10.347 1.807
-7.321 -8.217 0.913
-6.968 -7.929 0.973
-8.199 -10.000 1.818
-7.191 -8.247 1.070
-5.626 -6.519 0.906
-8.199 -10.000 1.818
-8.199 -10.000 1.818
-7.770 -9.499 1.742
-8.199 -10.000 1.818
-7.708 -9.098 1.404
-8.199 -10.000 1.818
-6.923 -8.083 1.177
-6.968 -7.932 0.975
-7.321 -8.217 0.913
-8.546 -10.347 1.814
-7.690 -9.098 1.421
-5.347 -6.833 1.494
-7.208 -8.223 1.029
-6.968 -7.941 0.984
-7.770 -9.499 1.742
-6.954 -8.090 1.152
-7.690 -9.098 1.421
-7.690 -9.098 1.421
-7.206 -8.233 1.039
-8.199 -10.000 1.818
-7.208 -8.225 1.030
-8.552 -10.347 1.807
-7.770 -9.499 1.742
-6.923 -8.083 1.177
-7.690 -9.098 1.421
-8.199 -10.000 1.818
-5.626 -6.519 0.906
-7.208 -8.223 1.029
-6.968 -7.940 0.983
-8.199 -10.000 1.818
-6.968 -7.942 0.985
-7.346 -8.214 0.885
-8.552 -10.347 1.807
-7.931 -9.426 1.500
-7.208 -8.223 1.028
-6.923 -8.083 1.177
-7.692 -9.382 1.704
-7.770 -9.499 1.742
-7.708 -9.098 1.404
-8.199 -10.000 1.818
-7.186 -8.237 1.062
-7.321 -8.216 0.913
-6.923 -8.083 1.177
-7.692 -9.382 1.704
-7.208 -8.223 1.028
-6.086 -6.069 -0.003
-5.625 -6.519 0.907
-7.692 -9.382 1.704
-6.954 -8.090 1.152
-7.204 -8.220 1.029
-6.923 -8.083 1.177
-6.954 -8.090 1.152
-5.626 -6.519 0.906
-6.809 -7.973 1.179
-5.509 -6.158 0.666
-5.626 -6.519 0.906
-7.346 -8.214 0.885
-6.923 -8.083 1.177
-6.954 -8.090 1.152
-5.603 -6.509 0.919
-7.690 -9.098 1.421
-6.954 -8.090 1.152
-6.966 -7.967 1.009
-7.931 -9.426 1.500
-7.208 -8.224 1.029
-6.088 -6.051 -0.023
-7.770 -9.499 1.742
-7.346 -8.214 0.885
-7.237 -8.223 0.998
-6.088 -6.051 -0.023
-8.191 -10.001 1.827
-6.088 -6.046 -0.028
-7.208 -8.223 1.029
-7.239 -8.223 0.997
-5.603 -6.507 0.916
-7.208 -8.223 1.029
-7.238 -8.231 1.006
-7.346 -8.214 0.885
-6.088 -6.051 -0.023
-6.954 -8.090 1.152
-6.923 -8.083 1.177
-5.968 -5.984 0.032
-7.346 -8.214 0.885
-7.781 -9.499 1.731
-5.641 -6.123 0.500
-5.690 -6.465 0.790
-6.923 -8.083 1.177
-7.781 -9.499 1.731
-6.088 -6.051 -0.023
-6.088 -6.051 -0.023
-5.955 -6.608 0.671
-7.346 -8.214 0.885
-7.057 -7.730 0.690
-5.945 -6.569 0.639
-7.709 -9.380 1.685
-7.239 -8.225 1.000
-7.346 -8.214 0.885
-5.294 -6.823 1.537
-6.088 -6.051 -0.023
-7.779 -9.494 1.728
-5.690 -6.465 0.790
-7.239 -8.226 1.000
-6.088 -6.051 -0.023
-6.954 -8.090 1.152
-6.088 -6.051 -0.023
-6.954 -8.090 1.152
-7.781 -9.499 1.731
-5.690 -6.464 0.789
-7.709 -9.380 1.685
-5.603 -6.507 0.917
-7.235 -8.209 0.986
-5.690 -6.465 0.790
-6.088 -6.051 -0.023
-6.088 -6.048 -0.027
-6.923 -8.083 1.177
-7.781 -9.499 1.731
-5.968 -6.638 0.687
-6.087 -6.056 -0.018
-6.088 -6.051 -0.023
-8.191 -10.001 1.827
-7.346 -8.214 0.885
-5.603 -6.507 0.916
-6.088 -6.051 -0.023
-5.575 -6.066 0.509
-7.239 -8.226 1.000
-6.954 -8.090 1.152
-7.239 -8.227 1.001
-7.239 -8.227 1.002
-7.239 -8.225 1.000
-6.968 -7.937 0.980
-7.346 -8.214 0.885
-5.603 -6.507 0.916
-7.239 -8.227 1.001
-7.239 -8.225 1.000
-7.346 -8.214 0.885
-6.088 -6.051 -0.023
-6.088 -6.051 -0.023
-7.209 -8.226 1.030
-7.239 -8.225 1.000
-6.088 -6.051 -0.023
-7.708 -9.098 1.404
-5.603 -6.507 0.916
-7.709 -9.380 1.685
-7.708 -9.098 1.404
-5.015 -7.021 2.016
-7.239 -8.225 0.999
-7.239 -8.225 1.000
-5.968 -6.637 0.686
-5.690 -6.465 0.790
-5.294 -6.823 1.537
-7.709 -9.380 1.685
-7.238 -8.228 1.003
-7.346 -8.214 0.885
-5.603 -6.507 0.916
-5.294 -6.823 1.537
-6.088 -6.051 -0.023
-6.088 -6.051 -0.023
-7.230 -8.226 1.009
-6.954 -8.090 1.152
-6.088 -6.051 -0.023
-5.603 -6.507 0.916
-7.346 -8.214 0.885
-7.346 -8.214 0.885
-7.239 -8.228 1.002
-5.603 -6.507 0.916
-7.239 -8.224 0.998
-7.239 -8.224 0.999
-5.968 -6.638 0.687
-7.231 -8.209 0.986
-6.088 -6.059 -0.015
-7.239 -8.225 1.000
-7.237 -8.235 1.011
-7.239 -8.225 1.000
-5.641 -6.123 0.500
-7.239 -8.229 1.004
-6.088 -6.051 -0.023
-7.923 -9.427 1.508
-5.969 -6.636 0.685
-7.238 -8.226 1.001
-7.238 -8.225 1.001
-7.237 -8.223 0.998
-5.604 -6.508 0.916
-8.192 -10.001 1.826
-7.238 -8.225 1.000
-7.238 -8.224 0.999
-5.604 -6.507 0.916
-7.238 -8.226 1.001
-6.991 -7.955 0.973
-5.969 -6.636 0.685
-7.322 -8.216 0.912
-7.770 -9.497 1.739
-7.238 -8.226 1.001
-7.734 -9.367 1.644
-4.824 -6.436 1.628
-7.346 -8.214 0.885
-6.534 -8.277 1.737
-6.482 -8.652 2.173
-6.395 -8.279 1.878
-6.489 -8.281 1.786
-6.482 -8.652 2.173
-6.482 -8.652 2.173
-6.482 -8.652 2.173
-6.578 -8.653 2.078
-6.490 -8.660 2.167
-4.225 -5.166 0.955
-6.482 -8.652 2.173
-5.889 -7.788 1.913
-6.482 -8.652 2.173
-6.395 -8.278 1.877
-6.395 -8.279 1.878
-6.395 -8.279 1.878
-4.595 -5.755 1.175
-5.577 -7.302 1.739
-6.411 -8.277 1.861
-6.474 -8.650 2.180
-5.576 -7.302 1.739
-7.703 -8.966 1.274
-5.919 -7.755 1.847
-5.576 -7.302 1.739
-6.399 -8.276 1.872
-4.595 -5.756 1.176
-6.569 -8.651 2.084
-6.474 -8.650 2.180
-6.474 -8.650 2.180
-6.488 -8.669 2.184
-6.488 -8.669 2.184
-6.473 -8.284 1.805
-5.573 -7.301 1.742
-6.292 -8.060 1.782
-5.398 -6.983 1.596
-5.625 -6.780 1.173
-7.435 -9.090 1.671
-6.495 -8.652 2.159
-6.400 -8.279 1.874
-4.885 -8.820 3.916
-6.400 -8.279 1.874
-6.400 -8.279 1.874
-6.473 -8.654 2.183
-6.495 -8.652 2.159
-6.495 -8.652 2.159
-4.969 -6.023 1.066
-6.400 -8.279 1.874
-6.495 -8.652 2.159
-6.400 -8.279 1.874
-6.267 -8.013 1.757
-6.292 -8.060 1.782
-5.299 -7.315 2.022
-6.400 -8.279 1.874
-6.473 -8.654 2.183
-5.681 -7.203 1.540
-6.570 -8.654 2.087
-6.400 -8.279 1.873
-6.400 -8.279 1.873
-6.474 -8.653 2.182
-5.681 -7.203 1.540
-6.496 -8.651 2.158
-4.220 -5.163 0.956
-6.400 -8.279 1.873
-6.474 -8.653 2.182
-5.574 -7.301 1.741
-6.474 -8.653 2.182
-5.276 -6.906 1.648
-6.537 -8.274 1.731
-6.398 -8.273 1.869
-6.473 -8.650 2.180
-6.473 -8.650 2.180
-5.307 -7.322 2.020
-5.680 -7.203 1.541
-6.473 -8.651 2.181
-5.576 -7.301 1.739
-6.495 -8.648 2.156
-4.871 -8.808 3.919
-6.473 -8.650 2.180
-5.576 -7.301 1.739
-5.218 -7.225 2.002
-6.473 -8.650 2.180
-5.218 -7.225 2.002
-5.576 -7.301 1.739
-5.306 -7.332 2.029
-4.592 -5.757 1.180
-5.625 -6.782 1.176
-6.473 -8.650 2.180
-6.495 -8.648 2.156
-4.089 -6.175 2.097
-6.398 -8.276 1.871
-6.473 -8.650 2.181
-4.592 -5.759 1.182
-4.592 -5.758 1.181