-9.285 -10.740 1.410
-9.220 -9.655 0.413
-9.839 -10.501 0.659
-9.839 -10.501 0.658
-11.397 -11.385 -0.040
-9.896 -11.191 1.270
-9.352 -10.525 1.168
-11.397 -11.385 -0.040
-9.352 -10.525 1.168
-11.397 -11.385 -0.040
-9.839 -10.501 0.659
-9.839 -10.501 0.658
-11.396 -11.373 -0.052
-9.839 -10.501 0.658
-9.222 -9.657 0.413
-9.839 -10.501 0.659
-9.839 -10.501 0.658
-9.221 -9.656 0.412
-7.952 -8.324 0.356
-11.397 -11.384 -0.041
-7.860 -8.329 0.451
-9.005 -10.533 1.513
-9.285 -10.740 1.414
-9.806 -10.499 0.689
-9.223 -9.653 0.409
-9.286 -10.740 1.409
-8.821 -9.324 0.512
-11.397 -11.388 -0.038
-10.282 -11.150 0.845
-9.223 -9.654 0.410
-9.223 -9.657 0.412
-9.222 -9.673 0.429
-9.891 -11.120 1.198
-9.222 -9.642 0.398
-9.286 -10.740 1.409
-9.222 -9.650 0.405
-9.223 -9.659 0.415
-9.222 -9.654 0.409
-9.352 -10.525 1.168
-9.286 -10.740 1.409
-8.979 -10.141 1.167
-7.222 -7.834 0.636
-7.641 -7.879 0.238
-8.640 -8.784 0.145
-9.222 -9.657 0.413
-9.352 -10.525 1.168
-7.645 -7.878 0.233
-8.640 -8.785 0.146
-9.286 -10.740 1.409
-7.952 -8.324 0.356
-7.862 -8.331 0.451
-7.983 -8.579 0.597
-7.642 -7.879 0.237
-9.414 -10.541 1.121
-9.222 -9.659 0.415
-9.352 -10.525 1.168
-9.286 -10.740 1.409
-11.157 -11.445 0.265
-9.899 -11.242 1.312
-7.983 -8.579 0.597
-8.640 -8.784 0.146
-8.640 -8.784 0.146
-9.223 -9.657 0.412
-9.870 -10.973 1.076
-7.266 -7.705 0.454
-9.286 -10.740 1.409
-8.640 -8.783 0.144
-6.705 -7.919 1.222
-9.425 -10.542 1.110
-9.891 -11.173 1.253
-9.223 -9.657 0.412
-9.887 -11.043 1.135
-9.810 -10.915 1.031
-9.890 -11.169 1.250
-9.900 -11.238 1.309
-8.552 -9.481 0.924
-7.876 -8.894 0.998
-7.860 -8.330 0.452
-7.761 -8.845 1.094
-9.877 -10.990 1.072
-9.831 -10.860 1.030
-7.915 -8.893 0.958
-7.915 -8.893 0.958
-7.816 -8.855 1.002
-8.639 -8.784 0.147
-11.397 -11.385 -0.040
-9.223 -9.657 0.411
-7.860 -8.328 0.450
-7.644 -7.878 0.233
-8.809 -9.144 0.350
-8.639 -8.786 0.148
-7.915 -8.894 0.958
-8.079 -9.317 1.220
-9.902 -11.277 1.345
-7.983 -8.579 0.597
-7.861 -8.330 0.452
-7.643 -7.877 0.234
-9.294 -10.403 1.117
-7.761 -8.846 1.096
-9.891 -11.109 1.193
-9.285 -10.740 1.410
-9.897 -11.256 1.327
-9.088 -10.193 1.119
-11.397 -11.385 -0.040
-8.647 -8.787 0.141
-11.397 -11.385 -0.040
-7.860 -8.329 0.451
-9.423 -10.542 1.112
-9.882 -11.072 1.159
-8.267 -8.897 0.638
-10.912 -10.662 -0.251
-8.639 -8.784 0.146
-9.899 -11.250 1.321
-9.220 -9.664 0.426
-7.753 -9.719 1.958
-9.887 -11.071 1.157
-11.396 -11.382 -0.043
-9.900 -11.258 1.329
-7.983 -8.579 0.597
-9.877 -11.174 1.252
-6.321 -8.316 2.012
-7.860 -8.329 0.451
-9.001 -10.032 1.030
-9.423 -10.542 1.112
-8.639 -8.784 0.146
-6.321 -8.311 2.009
-9.900 -11.255 1.326
-7.644 -7.878 0.234
-9.887 -11.293 1.369
-11.397 -11.385 -0.040
-7.913 -8.900 0.961
-9.352 -10.525 1.168
-9.900 -11.249 1.319
-8.640 -8.783 0.145
-9.425 -10.543 1.111
-9.899 -11.208 1.280
-7.877 -8.889 0.992
-7.643 -7.878 0.234
-7.643 -7.880 0.237
-8.639 -8.784 0.147
-7.983 -8.579 0.597
-7.332 -8.388 1.059
-9.163 -9.548 0.360
-9.222 -9.658 0.413
-7.860 -8.330 0.452
-9.565 -9.190 -0.409
-10.103 -11.315 1.196
-6.340 -8.319 1.997
-11.152 -11.443 0.269
-9.846 -11.084 1.213
-9.707 -10.716 0.997
-9.285 -10.740 1.410
-7.643 -7.879 0.235
-7.266 -7.705 0.455
-7.643 -7.879 0.236
-7.643 -7.879 0.235
-11.397 -11.385 -0.040
-9.865 -10.943 1.060
-7.860 -8.328 0.451
-11.397 -11.385 -0.040
-9.423 -10.542 1.112
-9.423 -10.543 1.112
-7.838 -8.810 0.905
-7.644 -7.878 0.234
-9.418 -10.549 1.125
-11.157 -11.443 0.264
-9.178 -9.553 0.352
-9.900 -11.249 1.320
-9.228 -9.659 0.409
-6.323 -8.315 2.010
-8.040 -9.295 1.237
-9.807 -10.516 0.706
-9.424 -10.543 1.111
-6.323 -8.315 2.010
-7.861 -8.329 0.450
-10.913 -10.663 -0.251
-7.953 -8.324 0.355
-9.352 -10.525 1.167
-9.295 -10.735 1.396
-9.425 -10.543 1.110
-9.221 -9.657 0.414
-9.425 -10.542 1.109
-9.425 -10.543 1.110
-10.913 -10.663 -0.251
-8.040 -9.294 1.236
-9.425 -10.543 1.110
-8.640 -8.784 0.146
-11.021 -11.952 0.951
-11.158 -11.443 0.263
-7.645 -7.878 0.233
-9.807 -10.510 0.699
-6.672 -7.731 1.061
-9.296 -10.735 1.395
-11.156 -11.443 0.262
-7.262 -7.707 0.461
-11.157 -11.443 0.264
-7.644 -7.880 0.235
-9.676 -10.855 1.172
-9.868 -11.143 1.236
-7.855 -8.329 0.457
-9.282 -10.673 1.363
-8.642 -8.784 0.144
-9.424 -10.528 1.091
-9.427 -10.543 1.108
-9.220 -9.655 0.413
-7.644 -7.880 0.236
-11.396 -11.385 -0.040
-7.855 -8.330 0.457
-11.396 -11.385 -0.040
-9.806 -10.520 0.711
-9.426 -10.543 1.109
-7.644 -7.879 0.236
-6.482 -7.211 0.742
-8.642 -8.783 0.143
-10.910 -10.663 -0.248
-8.642 -8.784 0.144
-8.041 -9.293 1.234
-9.426 -10.543 1.109
-9.570 -9.190 -0.415
-8.642 -8.784 0.144
-9.220 -9.653 0.412
-7.262 -7.707 0.460
-11.396 -11.385 -0.040
-9.426 -10.541 1.107
-9.567 -9.188 -0.415
-8.642 -8.786 0.145
-6.410 -8.548 2.146
-9.220 -9.646 0.402
-9.220 -9.656 0.414
-9.806 -10.498 0.688
-7.914 -8.893 0.958
-8.642 -8.784 0.144
-9.900 -11.246 1.316
-9.426 -10.541 1.109
-8.642 -8.788 0.148
-7.632 -7.883 0.250
-6.317 -8.319 2.020
-7.982 -8.579 0.598
-11.397 -11.385 -0.040
-7.828 -8.941 1.102
-9.422 -10.542 1.114
-7.860 -8.328 0.451
-9.286 -10.740 1.409
-9.423 -10.543 1.111
-7.266 -7.706 0.456
-7.494 -8.815 1.329
-9.222 -9.657 0.413
-7.641 -7.878 0.237
-6.566 -8.010 1.465
-10.913 -10.663 -0.252
-11.145 -11.450 0.281
-9.903 -11.187 1.258
-7.641 -7.879 0.238
-7.914 -8.890 0.956
-6.565 -8.011 1.466
-7.641 -7.880 0.238
-6.319 -8.316 2.015
-8.639 -8.784 0.147
-7.222 -7.831 0.633
-9.222 -9.663 0.419
-7.941 -9.465 1.503
-7.914 -8.893 0.959
-11.397 -11.385 -0.040
-9.869 -10.935 1.041
-11.397 -11.386 -0.039
-7.644 -7.886 0.242
-7.266 -7.705 0.455
-8.639 -8.784 0.146
-7.644 -7.878 0.233
-8.639 -8.785 0.147
-9.423 -10.542 1.111
-9.223 -9.657 0.412
-6.546 -8.029 1.510
-6.318 -7.608 1.298
-9.223 -9.657 0.412
-7.644 -7.878 0.234
-8.639 -8.785 0.147
-7.222 -7.832 0.633
-5.752 -8.262 2.496
-6.566 -8.010 1.466
-7.901 -8.842 0.927
-6.449 -8.556 2.111
-7.983 -8.579 0.597
-7.762 -8.845 1.093
-8.639 -8.785 0.148
-9.807 -10.506 0.696
-5.752 -8.260 2.494
-7.222 -7.831 0.633
-9.839 -10.501 0.658
-7.860 -8.330 0.452
-9.222 -9.658 0.413
-9.416 -10.540 1.114
-7.643 -7.880 0.238
-7.205 -9.217 2.002
-7.754 -9.722 1.963
-7.222 -7.830 0.632
-9.905 -11.255 1.320
-6.493 -7.168 0.687
-7.860 -8.330 0.452
-9.227 -9.659 0.410
-7.982 -8.578 0.598
-7.643 -7.879 0.235
-7.648 -7.873 0.224
-6.193 -6.839 0.639
-8.017 -8.567 0.552
-7.487 -7.887 0.395
-6.340 -7.722 1.389
-6.604 -7.160 0.569
-7.471 -7.843 0.367
-6.410 -7.773 1.346
-6.442 -8.550 2.112
-8.817 -9.145 0.343
-6.442 -8.550 2.112
-7.245 -7.830 0.609
-7.887 -8.321 0.416
-7.654 -7.871 0.216
-11.169 -11.449 0.258
-8.017 -8.567 0.552
-9.895 -11.138 1.216
-6.412 -8.543 2.140
-8.017 -8.567 0.552
-7.654 -7.869 0.214
-8.982 -10.150 1.145
-7.887 -8.321 0.416
-6.627 -7.795 1.174
-6.606 -7.157 0.564
-11.169 -11.450 0.259
-9.876 -11.093 1.188
-9.229 -9.661 0.410
-9.813 -10.506 0.690
-9.229 -9.653 0.401
-7.245 -7.830 0.610
-7.759 -8.837 1.088
-7.654 -7.871 0.216
-9.813 -10.505 0.689
-9.229 -9.660 0.410
-9.283 -10.735 1.407
-9.863 -11.075 1.195
-9.557 -9.187 -0.404
-7.654 -7.871 0.216
-7.751 -9.599 1.823
-9.283 -10.735 1.407
-7.654 -7.870 0.215
-8.817 -9.144 0.341
-8.626 -8.806 0.185
-8.640 -8.785 0.146
-7.654 -7.870 0.216
-9.898 -11.219 1.292
-6.412 -8.543 2.140
-9.283 -10.735 1.407
-7.422 -8.397 0.973
-8.829 -9.290 0.470
-7.654 -7.871 0.216
-8.640 -8.784 0.146
-8.824 -9.236 0.424
-7.493 -7.882 0.385
-7.654 -7.871 0.216
-7.905 -8.875 0.949
-11.413 -11.388 -0.053
-8.640 -8.785 0.147
-9.169 -9.567 0.373
-7.656 -7.870 0.214
-9.229 -9.660 0.409
-9.811 -10.496 0.682
-7.741 -9.683 1.943
-7.656 -7.870 0.214
-8.017 -8.566 0.552
-9.229 -9.660 0.409
-8.640 -8.785 0.147
-6.587 -8.001 1.433
-9.127 -10.172 1.032
-9.428 -10.542 1.107
-6.442 -8.550 2.112
-7.887 -8.319 0.415
-9.291 -9.657 0.343
-8.016 -8.566 0.552
-7.657 -7.870 0.213
-9.428 -10.542 1.106
-8.016 -8.566 0.552
-7.264 -7.826 0.586
-7.264 -8.873 1.613
-6.720 -7.917 1.205
-6.459 -8.538 2.083
-8.838 -9.138 0.315
-9.428 -10.542 1.107
-9.228 -9.645 0.396
-9.890 -11.164 1.244
-7.657 -7.870 0.213
-8.016 -8.566 0.552
-7.888 -8.320 0.414
-8.836 -9.144 0.322
-9.297 -10.728 1.389
-7.306 -7.714 0.424
-6.610 -8.000 1.410
-6.930 -7.965 1.032
-9.814 -10.495 0.678
-9.297 -10.728 1.389
-7.491 -7.882 0.386
-10.920 -10.665 -0.257
-7.084 -7.930 0.834
-9.428 -10.541 1.106
-8.764 -9.765 1.010
-7.654 -7.883 0.230
-9.814 -10.494 0.677
-7.888 -8.320 0.414
-8.641 -8.786 0.147
-8.641 -8.785 0.146
-7.948 -8.870 0.897
-9.814 -10.495 0.678
-8.641 -8.785 0.146
-7.888 -8.319 0.414
-7.856 -8.743 0.883
-8.836 -9.143 0.321
-9.228 -9.646 0.396
-8.016 -8.566 0.552
-6.721 -7.917 1.205
-7.599 -8.449 0.872
-8.641 -8.786 0.146
-7.306 -7.716 0.426
-9.814 -10.493 0.676
-6.606 -7.156 0.563
-7.782 -8.862 1.071
-6.368 -7.748 1.384
-7.692 -8.672 1.004
-6.430 -8.534 2.113
-8.641 -8.785 0.146
-7.264 -7.823 0.583
-9.228 -9.645 0.395
-7.888 -8.320 0.414
-7.657 -7.868 0.209
-6.459 -8.538 2.084
-7.657 -7.870 0.212
-7.311 -7.815 0.516
-7.306 -7.706 0.416
-9.228 -9.646 0.396
-9.192 -9.555 0.340
-9.297 -10.728 1.389
-9.228 -9.646 0.396
-7.949 -9.535 1.569
-7.657 -7.870 0.212
-11.413 -11.388 -0.053
-9.228 -9.649 0.398
-6.459 -8.538 2.083
-7.657 -7.870 0.212
-8.641 -8.785 0.146
-10.920 -10.665 -0.257
-7.657 -7.870 0.212
-7.303 -7.683 0.396
-10.860 -11.853 0.960
-9.297 -10.728 1.389
-7.306 -7.713 0.424
-6.610 -7.999 1.410
-9.228 -9.650 0.400
-6.610 -7.999 1.410
-6.430 -8.534 2.113
-9.896 -11.233 1.308
-11.174 -11.445 0.249
-7.306 -7.726 0.437
-9.814 -10.494 0.678
-10.525 -11.487 0.966
-9.814 -10.495 0.678
-9.814 -10.495 0.678
-9.297 -10.728 1.389
-8.016 -8.566 0.552
-8.641 -8.785 0.145
-7.657 -7.870 0.212
-9.297 -10.728 1.389
-8.773 -8.989 0.234
-9.228 -9.647 0.397
-8.645 -8.782 0.139
-6.449 -8.556 2.111
-10.919 -10.661 -0.260
-9.762 -11.134 1.334
-7.638 -7.876 0.237
-6.020 -6.832 0.798
-6.312 -7.661 1.353
-7.673 -8.989 1.262
-6.405 -8.548 2.152
-7.915 -8.892 0.957
-8.643 -8.784 0.142
-9.274 -10.740 1.421
-9.947 -11.298 1.321
-9.228 -9.662 0.411
-9.946 -11.282 1.311
-8.643 -8.794 0.154
-8.017 -8.567 0.552
-9.274 -10.740 1.421
-9.946 -11.310 1.335
-6.455 -8.555 2.104
-9.947 -11.292 1.314
-9.947 -11.291 1.313
-7.641 -7.876 0.234
-9.228 -9.660 0.410
-10.926 -10.663 -0.265
-8.643 -8.783 0.142
-9.167 -9.499 0.307
-6.733 -7.093 0.371
-8.121 -8.469 0.373
-6.734 -7.093 0.370
-8.646 -8.782 0.139
-7.912 -8.892 0.960
-8.646 -8.783 0.139
-7.910 -8.908 0.976
-9.273 -10.740 1.422
-7.644 -7.875 0.230
-8.662 -8.990 0.302
-8.823 -9.296 0.482
-9.273 -10.740 1.422
-7.644 -7.875 0.230
-8.646 -8.784 0.140
-9.920 -11.255 1.301
-9.947 -11.326 1.346
-9.273 -10.740 1.422
-8.814 -9.146 0.347
-8.224 -8.909 0.701
-9.229 -9.662 0.411
-7.643 -7.875 0.231
-6.584 -8.011 1.448
-8.811 -9.151 0.355
-7.882 -8.330 0.431
-7.643 -7.875 0.231
-6.405 -8.548 2.152
-6.405 -8.548 2.152
-9.229 -9.661 0.410
-9.229 -9.660 0.409
-9.229 -9.662 0.411
-9.229 -9.662 0.411
-7.592 -8.434 0.861
-9.025 -10.221 1.170
-8.823 -9.297 0.483
-9.383 -10.541 1.153
-7.643 -7.875 0.231
-9.229 -9.661 0.410
-7.643 -7.875 0.231
-7.643 -7.878 0.234
-8.643 -8.788 0.146
-6.405 -8.548 2.152
-7.882 -8.329 0.431
-9.948 -11.291 1.314
-6.559 -8.009 1.469
-6.405 -8.548 2.152
-7.307 -7.742 0.453
-7.740 -8.939 1.179
-7.491 -7.883 0.387
-9.941 -11.289 1.316
-7.643 -7.876 0.232
-9.229 -9.667 0.415
-8.814 -9.194 0.390
-7.643 -7.873 0.229
-6.646 -8.235 1.610
-7.643 -7.876 0.232
-7.643 -7.876 0.232
-9.947 -11.243 1.270
-7.912 -8.892 0.959
-7.882 -8.329 0.431
-6.351 -8.308 1.976
-7.643 -7.876 0.232
-7.643 -7.866 0.221
-7.643 -7.875 0.231
-8.017 -8.567 0.552
-7.643 -7.875 0.231
-7.307 -7.713 0.423
-9.383 -10.541 1.153
-9.186 -9.563 0.353
-8.016 -8.567 0.553
-7.762 -9.716 1.950
-8.645 -8.783 0.140
-7.643 -7.876 0.231
-7.768 -9.726 1.951
-6.669 -8.110 1.459
-9.947 -11.245 1.270
-7.643 -7.875 0.231
-7.595 -8.456 0.882
-7.897 -8.928 0.994
-9.227 -9.662 0.413
-6.411 -8.543 2.141
-9.949 -11.300 1.323
-9.138 -9.631 0.482
-6.411 -8.543 2.141
-7.244 -7.830 0.610
-8.801 -9.115 0.339
-8.645 -8.782 0.139
-6.442 -8.550 2.113
-9.383 -10.541 1.152
-9.226 -9.659 0.409
-9.227 -9.659 0.410
-8.016 -8.567 0.553
-9.283 -10.735 1.408
-7.757 -9.670 1.899
-7.244 -7.831 0.611
-6.352 -8.310 1.975
-9.169 -9.566 0.373
-7.910 -8.900 0.969
-9.227 -9.661 0.412
-7.643 -7.875 0.231
-9.104 -10.180 1.087
-6.543 -7.955 1.433
-7.644 -7.875 0.230
-8.016 -8.567 0.553
-8.646 -8.783 0.139
-7.883 -8.329 0.429
-7.230 -9.300 2.040
-6.056 -6.854 0.784
-9.283 -10.735 1.408
-8.016 -8.567 0.553
-8.016 -8.567 0.553
-7.644 -7.875 0.230
-6.442 -8.550 2.113
-9.227 -9.659 0.410
-7.484 -7.876 0.391
-9.169 -9.567 0.374
-8.016 -8.567 0.553
-8.036 -8.290 0.132
-8.828 -9.288 0.469
-8.829 -9.311 0.492
-7.583 -8.421 0.863
-6.442 -8.550 2.113
-8.016 -8.567 0.553
-11.413 -11.388 -0.053
-9.428 -10.542 1.107
-9.236 -9.665 0.405
-7.308 -7.729 0.438
-9.811 -10.495 0.681
-7.482 -7.868 0.383
-8.815 -9.155 0.354
-8.153 -8.541 0.340
-9.283 -10.735 1.407
-8.640 -8.785 0.146
-9.229 -9.664 0.412
-7.493 -7.881 0.383
-7.887 -8.319 0.415
-8.017 -8.566 0.552
-9.055 -10.088 1.038
-9.229 -9.660 0.409
-7.904 -8.888 0.962
-6.666 -7.296 0.634
-7.656 -7.870 0.213
-9.229 -9.659 0.408
-8.640 -8.782 0.144
-6.358 -8.303 1.963
-7.245 -7.831 0.610
-6.412 -8.543 2.140
-8.017 -8.566 0.552
-9.164 -9.570 0.382
-8.629 -8.796 0.162
-7.245 -7.830 0.609
-9.229 -9.660 0.409
-9.229 -9.660 0.409
-6.607 -7.157 0.564
-7.905 -8.880 0.953
-7.656 -7.870 0.214
-7.887 -8.319 0.415
-7.887 -8.319 0.415
-9.418 -10.517 1.093
-8.017 -8.566 0.552
-9.292 -10.733 1.396
-7.308 -7.717 0.426
-8.017 -8.566 0.552
-8.640 -8.785 0.147
-6.358 -8.304 1.964
-8.639 -8.805 0.165
-9.229 -9.660 0.409
-7.656 -7.871 0.215
-9.229 -9.666 0.414
-8.017 -8.566 0.552
-7.887 -8.319 0.415
-7.656 -7.869 0.213
-7.034 -8.359 1.302
-7.656 -7.870 0.213
-8.346 -8.510 0.137
-9.428 -10.542 1.107
-7.656 -7.870 0.213
-8.138 -8.948 0.616
-9.428 -10.542 1.107
-8.640 -8.790 0.152
-8.017 -8.566 0.552
-6.056 -6.853 0.784
-9.229 -9.658 0.407
-6.056 -6.854 0.784
-7.656 -7.870 0.214
-7.656 -7.870 0.213
-7.078 -7.910 0.812
-8.017 -8.566 0.552
-7.948 -9.541 1.577
-11.174 -11.446 0.250
-8.017 -8.566 0.552
-9.229 -9.668 0.417
-6.434 -7.898 1.483
-7.109 -7.636 0.539
-6.412 -8.543 2.140
-6.412 -8.543 2.140
-7.729 -9.644 1.892
-9.283 -10.735 1.407
-8.017 -8.566 0.552
-6.442 -8.550 2.112
-9.229 -9.659 0.408
-7.493 -7.881 0.383
-7.599 -8.449 0.872
-9.283 -10.735 1.407
-7.471 -7.843 0.367
-9.229 -9.658 0.407
-9.144 -9.469 0.298
-7.245 -7.831 0.609
-9.285 -10.740 1.410
-7.266 -7.706 0.457
-11.397 -12.085 0.663
-9.841 -10.489 0.646
-10.285 -11.163 0.855
-10.285 -11.138 0.828
-10.285 -11.122 0.814
-10.988 -11.776 0.773
-11.399 -12.085 0.661
-10.988 -11.776 0.773
-11.018 -11.965 0.961
-10.988 -11.776 0.773
-11.332 -11.940 0.585
-11.399 -12.085 0.661
-10.230 -11.609 1.384
-11.332 -11.940 0.585
-11.332 -11.940 0.585
-11.332 -11.940 0.585
-11.410 -11.381 -0.057
-10.285 -11.159 0.852
-11.399 -12.085 0.661
-10.230 -11.610 1.384
-10.269 -11.067 0.756
-10.109 -11.318 1.193
-11.410 -11.381 -0.057
-10.272 -11.102 0.808
-10.361 -11.509 1.097
-11.332 -11.940 0.585
-10.230 -11.608 1.382
-10.229 -11.609 1.385
-11.018 -11.965 0.960
-11.399 -12.085 0.661
-10.230 -11.606 1.381
-10.916 -10.663 -0.255
-11.017 -11.963 0.957
-10.286 -11.144 0.837
-10.230 -11.615 1.390
-9.913 -11.180 1.238
-11.332 -11.940 0.585
-10.211 -11.493 1.289
-11.410 -11.381 -0.057
-9.762 -10.256 0.496
-10.230 -11.609 1.383
-11.332 -11.940 0.585
-9.730 -10.846 1.107
-10.285 -11.146 0.840
-10.230 -11.606 1.381
-11.410 -11.381 -0.057
-10.286 -11.141 0.833
-11.344 -12.088 0.721
-10.230 -11.608 1.383
-10.361 -11.509 1.097
-8.652 -8.786 0.136
-10.286 -11.141 0.834
-10.230 -11.608 1.383
-10.230 -11.608 1.383
-9.730 -10.846 1.107
-10.286 -11.140 0.833
-11.410 -11.381 -0.057
-9.762 -10.256 0.496
-11.399 -12.085 0.661
-10.285 -11.155 0.848
-10.253 -10.997 0.702
-9.855 -10.499 0.640
-9.769 -10.257 0.489
-10.466 -11.506 1.050
-10.230 -11.608 1.383
-9.555 -11.463 1.747
-10.106 -11.324 1.200
-11.332 -11.940 0.585
-11.399 -12.085 0.661
-9.730 -10.846 1.107
-10.284 -11.189 0.883
-10.228 -11.609 1.383
-11.332 -11.940 0.585
-10.908 -10.662 -0.248
-10.916 -10.663 -0.255
-11.399 -12.085 0.661
-9.769 -10.257 0.489
-10.285 -11.141 0.833
-10.286 -11.142 0.834
-10.084 -11.130 1.026
-9.358 -10.524 1.160
-11.018 -11.964 0.960
-10.286 -11.143 0.836
-9.058 -9.389 0.275
-11.400 -12.085 0.660
-11.333 -11.940 0.583
-8.091 -9.315 1.206
-9.858 -10.499 0.638
-10.362 -11.509 1.095
-10.231 -11.611 1.385
-11.033 -11.968 0.948
-11.333 -11.940 0.583
-9.858 -10.499 0.638
-10.231 -11.608 1.381
-8.091 -9.315 1.206
-11.400 -12.085 0.660
-10.231 -11.610 1.384
-11.411 -11.381 -0.058
-10.917 -10.663 -0.256
-11.333 -11.940 0.583
-8.091 -9.317 1.208
-10.286 -11.140 0.833
-11.346 -12.088 0.720
-10.362 -11.509 1.095
-8.657 -8.784 0.129
-7.887 -8.886 0.978
-10.286 -11.141 0.834
-10.917 -10.663 -0.256
-9.360 -10.524 1.159
-10.231 -11.608 1.382
-9.360 -10.524 1.159
-10.989 -11.776 0.771
-9.858 -10.499 0.638
-11.400 -12.085 0.660
-8.091 -9.315 1.206
-10.229 -11.613 1.388
-9.915 -11.181 1.236
-7.980 -9.569 1.574
-10.909 -10.662 -0.249
-10.989 -11.776 0.771
-10.468 -11.505 1.047
-10.231 -11.608 1.382
-7.980 -9.569 1.574
-11.400 -12.085 0.660
-9.771 -10.257 0.487
-11.333 -11.940 0.583
-9.858 -10.499 0.638
-8.091 -9.316 1.206
-11.411 -11.381 -0.058
-9.731 -10.846 1.106
-10.286 -11.141 0.833
-9.915 -11.181 1.237
-7.980 -9.569 1.574
-10.271 -11.492 1.234
-8.091 -9.315 1.206
-10.909 -10.662 -0.249
-9.858 -10.499 0.638
-10.909 -10.662 -0.249
-10.917 -10.663 -0.256
-10.917 -10.663 -0.256
-10.285 -11.176 0.868
-10.286 -11.142 0.835
-10.149 -11.636 1.500
-10.104 -11.285 1.164
-10.286 -11.140 0.832
-9.731 -10.846 1.106
-9.731 -10.846 1.106
-11.322 -11.945 0.599
-11.411 -11.381 -0.058
-11.400 -12.085 0.660
-7.980 -9.569 1.574
-9.731 -10.846 1.106
-9.360 -10.524 1.159
-10.186 -11.491 1.310
-9.731 -10.845 1.106
-10.286 -11.142 0.834
-11.343 -11.945 0.579
-10.110 -11.314 1.188
-7.980 -9.569 1.574
-9.858 -10.499 0.638
-10.918 -10.664 -0.256
-9.915 -11.182 1.238
-10.286 -11.143 0.835
-9.058 -9.389 0.275
-10.231 -11.607 1.381
-10.231 -11.608 1.381
-10.231 -11.604 1.378
-11.343 -11.945 0.579
-11.411 -11.381 -0.058
-11.400 -12.085 0.660
-10.917 -10.663 -0.256
-8.091 -9.317 1.208
-10.231 -11.608 1.382
-11.333 -11.940 0.583
-11.333 -11.940 0.583
-10.909 -10.662 -0.249
-10.286 -11.134 0.826
-11.343 -11.945 0.579
-10.436 -11.510 1.082
-7.980 -9.569 1.574
-10.286 -11.142 0.834
-10.917 -10.663 -0.256
-11.346 -12.088 0.720
-11.411 -11.381 -0.058
-11.343 -11.945 0.579
-10.186 -11.491 1.310
-9.915 -11.181 1.237
-11.411 -11.381 -0.058
-10.109 -11.301 1.175
-10.917 -10.663 -0.256
-10.231 -11.612 1.385
-9.731 -10.846 1.106
-10.230 -11.599 1.375
-11.020 -11.965 0.958
-8.091 -9.315 1.206
-10.909 -10.662 -0.249
-10.909 -10.662 -0.249
-10.881 -11.699 0.789
-11.333 -11.940 0.583
-9.360 -10.524 1.159
-10.362 -11.509 1.095
-9.731 -10.846 1.106
-10.989 -11.776 0.771
-8.091 -9.315 1.206
-9.858 -10.499 0.638
-11.344 -11.945 0.578
-10.917 -10.663 -0.256
-10.362 -11.509 1.095
-10.917 -10.663 -0.256
-10.286 -11.142 0.835
-11.411 -11.381 -0.058
-10.468 -11.505 1.047
-10.917 -10.663 -0.256
-10.917 -10.663 -0.256
-7.980 -9.569 1.574
-11.400 -12.085 0.660
-11.411 -11.381 -0.058
-10.286 -11.139 0.831
-11.411 -11.381 -0.058
-11.411 -11.381 -0.059
-9.360 -10.524 1.159
-10.110 -11.307 1.181
-9.915 -11.181 1.237
-9.764 -10.256 0.494
-10.918 -10.664 -0.256
-9.731 -10.845 1.105
-9.771 -10.257 0.487
-10.286 -11.143 0.835
-10.909 -10.662 -0.249
-10.231 -11.608 1.382
-10.362 -11.509 1.095
-8.091 -9.316 1.207
-10.985 -11.776 0.776
-8.647 -8.787 0.141
-11.014 -11.964 0.963
-11.397 -11.385 -0.040
-10.914 -10.664 -0.251
-7.946 -9.568 1.608
-10.905 -10.662 -0.245
-10.914 -10.663 -0.252
-10.355 -11.512 1.105
-9.353 -10.525 1.167
-11.398 -11.385 -0.042
-11.029 -11.967 0.953
-7.991 -9.321 1.312
-10.986 -11.776 0.775
-10.107 -11.766 1.664
-10.905 -10.662 -0.245
-8.089 -9.316 1.209
-8.652 -8.786 0.135
-9.051 -9.396 0.285
-10.227 -11.608 1.386
-8.652 -8.786 0.135
-8.657 -8.789 0.133
-8.652 -8.786 0.135
-11.016 -11.965 0.962
-8.652 -8.786 0.135
-9.353 -10.525 1.167
-10.905 -10.662 -0.245
-9.353 -10.525 1.167
-8.088 -9.315 1.209
-11.398 -11.385 -0.042
-10.433 -11.509 1.085
-11.399 -12.085 0.661
-9.841 -10.500 0.656
-10.434 -11.509 1.084
-10.905 -10.663 -0.245
-9.053 -9.390 0.280
-9.722 -10.848 1.116
-10.282 -11.137 0.834
-9.722 -10.848 1.116
-11.398 -11.385 -0.042
-10.465 -11.505 1.050
-10.913 -10.663 -0.252
-10.282 -11.142 0.838
-7.977 -9.570 1.578
-8.652 -8.786 0.135
-11.399 -12.085 0.661
-10.433 -11.509 1.085
-10.465 -11.505 1.049
-9.341 -10.547 1.199
-11.399 -12.085 0.661
-7.977 -9.570 1.578
-11.340 -11.945 0.582
-7.977 -9.570 1.578
-8.657 -8.789 0.133
-11.399 -12.085 0.661
-9.722 -10.848 1.116
-10.282 -11.140 0.836
-11.340 -11.945 0.582
-10.282 -11.137 0.833
-10.282 -11.141 0.837
-10.986 -11.776 0.775
-7.977 -9.570 1.578
-9.841 -10.500 0.656
-11.398 -11.385 -0.042
-8.657 -8.789 0.132
-9.353 -10.525 1.167
-10.914 -10.664 -0.251
-7.977 -9.570 1.578
-9.353 -10.525 1.167
-11.399 -12.085 0.661
-10.906 -10.663 -0.244
-10.085 -11.268 1.167
-9.722 -10.848 1.116
-7.991 -9.321 1.312
-7.886 -8.886 0.979
-11.398 -11.385 -0.042
-10.194 -11.608 1.419
-9.348 -10.525 1.171
-11.399 -12.085 0.661
-9.051 -9.396 0.285
-10.282 -11.137 0.833
-10.465 -11.505 1.050
-10.379 -11.585 1.210
-11.319 -11.945 0.603
-11.398 -11.385 -0.042
-10.986 -11.776 0.775
-10.471 -11.506 1.044
-11.399 -12.085 0.661
-10.914 -10.664 -0.251
-10.282 -11.141 0.837
-11.398 -11.385 -0.042
-10.986 -11.776 0.775
-9.722 -10.848 1.116
-11.344 -12.088 0.722
-10.067 -11.237 1.156
-10.905 -10.662 -0.245
-9.051 -9.396 0.285
-11.398 -11.385 -0.042
-11.340 -11.945 0.582
-10.914 -10.664 -0.251
-9.353 -10.525 1.167
-7.945 -9.584 1.628
-9.722 -10.848 1.116
-10.227 -11.610 1.387
-10.905 -10.663 -0.245
-10.465 -11.505 1.049
-11.398 -11.385 -0.042
-10.282 -11.140 0.837
-10.905 -10.662 -0.245
-10.905 -10.662 -0.245
-11.399 -12.085 0.661
-11.398 -11.385 -0.042
-8.652 -8.786 0.135
-10.905 -10.662 -0.245
-9.353 -10.526 1.167
-11.330 -11.940 0.587
-10.914 -10.664 -0.252
-10.282 -11.141 0.837
-10.282 -11.140 0.836
-10.282 -11.140 0.836
-9.353 -10.525 1.167
-9.353 -10.525 1.167
-11.340 -11.945 0.582
-11.319 -11.945 0.603
-8.645 -8.783 0.140
-8.652 -8.786 0.135
-10.465 -11.505 1.049
-10.914 -10.663 -0.252
-11.398 -11.385 -0.042
-9.056 -9.390 0.277
-10.105 -11.319 1.197
-11.399 -12.085 0.661
-9.353 -10.525 1.167
-10.905 -10.662 -0.245
-10.905 -10.662 -0.245
-9.056 -9.390 0.277
-7.977 -9.569 1.577
-11.006 -11.978 0.995
-10.905 -10.663 -0.245
-9.901 -11.266 1.341
-11.399 -12.085 0.661
-10.905 -10.662 -0.245
-9.676 -10.853 1.171
-7.946 -9.568 1.607
-9.901 -11.186 1.256
-10.915 -10.664 -0.252
-11.030 -11.967 0.950
-11.398 -11.385 -0.042
-7.946 -9.568 1.607
-7.991 -9.321 1.311
-8.089 -9.316 1.210
-10.914 -10.663 -0.252
-11.398 -11.385 -0.042
-9.715 -10.726 0.997
-11.398 -11.385 -0.042
-11.399 -12.085 0.661
-8.089 -9.316 1.209
-11.022 -11.966 0.952
-7.977 -9.570 1.578
-10.355 -11.512 1.105
-11.319 -11.945 0.603
-8.088 -9.316 1.210
-11.398 -11.385 -0.042
-11.398 -11.385 -0.042
-11.340 -11.945 0.582
-9.722 -10.848 1.116
-10.905 -10.662 -0.245
-10.282 -11.141 0.837
-10.913 -10.663 -0.252
-10.913 -10.663 -0.252
-8.652 -8.786 0.135
-8.652 -8.786 0.135
-9.569 -9.190 -0.414
-10.905 -10.662 -0.245
-9.722 -10.848 1.116
-10.905 -10.662 -0.245
-10.282 -11.138 0.834
-10.088 -11.262 1.157
-9.353 -10.525 1.167
-10.433 -11.510 1.085
-11.029 -11.968 0.953
-10.106 -11.307 1.185
-10.905 -10.663 -0.245
-10.905 -10.662 -0.245
-9.722 -10.848 1.116
-8.088 -9.316 1.209
-11.398 -11.385 -0.042
-10.355 -11.512 1.105
-10.905 -10.662 -0.245
-8.910 -10.159 1.240
-8.646 -8.783 0.139
-10.914 -10.664 -0.252
-10.434 -11.509 1.084
-10.282 -11.141 0.837
-10.355 -11.512 1.105
-10.267 -11.142 0.853
-11.398 -11.385 -0.042
-10.914 -10.664 -0.251
-11.017 -11.968 0.965
-11.344 -12.088 0.721
-10.914 -10.664 -0.251
-11.398 -11.385 -0.042
-10.914 -10.664 -0.251
-10.227 -11.609 1.386
-11.330 -11.940 0.587
-9.051 -9.396 0.285
-9.722 -10.848 1.116
-10.914 -10.663 -0.252
-8.088 -9.317 1.210
-10.994 -11.983 1.008
-8.088 -9.316 1.209
-11.398 -11.385 -0.042
-10.173 -11.606 1.438
-9.722 -10.848 1.116
-10.905 -10.662 -0.245
-9.353 -10.525 1.167
-10.282 -11.140 0.837
-10.167 -11.384 1.218
-9.353 -10.525 1.167
-10.914 -10.664 -0.251
-8.652 -8.786 0.135
-10.914 -10.663 -0.252
-10.914 -10.664 -0.252
-9.841 -10.500 0.656
-10.986 -11.776 0.775
-11.016 -11.967 0.965
-7.945 -9.573 1.615
-10.282 -11.149 0.846
-7.991 -9.320 1.311
-8.644 -8.783 0.141
-8.644 -8.784 0.141
-10.433 -11.509 1.084
-10.355 -11.512 1.105
-11.319 -11.945 0.603
-10.904 -10.663 -0.244
-10.164 -11.378 1.216
-10.282 -11.142 0.839
-8.639 -8.783 0.145
-11.397 -11.385 -0.040
-11.397 -11.385 -0.040
-11.397 -11.385 -0.040
-10.354 -11.512 1.107
-10.904 -10.663 -0.244
-11.397 -11.385 -0.040
-10.282 -11.144 0.840
-11.017 -11.968 0.966
-11.398 -11.385 -0.042
-10.079 -11.267 1.175
-10.905 -10.662 -0.245
-10.227 -11.609 1.387
-9.353 -10.525 1.167
-9.841 -10.501 0.656
-10.471 -11.506 1.044
-11.398 -11.385 -0.042
-11.398 -11.385 -0.042
-10.905 -10.662 -0.245
-8.652 -8.786 0.136
-7.977 -9.567 1.575
-10.986 -11.776 0.775
-7.975 -9.547 1.561
-7.944 -9.548 1.586
-9.353 -10.525 1.167
-11.398 -11.385 -0.042
-10.090 -11.302 1.195
-8.652 -8.786 0.135
-9.523 -10.156 0.627
-11.319 -11.945 0.603
-10.914 -10.663 -0.252
-9.051 -9.396 0.285
-10.355 -11.512 1.105
-8.645 -8.783 0.139
-11.399 -12.085 0.661
-11.398 -11.385 -0.042
-8.644 -8.780 0.138
-11.316 -11.951 0.612
-10.906 -12.048 1.169
-11.318 -11.945 0.604
-11.400 -12.085 0.660
-11.030 -11.969 0.954
-10.914 -10.663 -0.253
-10.467 -11.505 1.048
-8.656 -8.785 0.131
-11.322 -11.945 0.600
-10.356 -11.512 1.104
-9.594 -10.093 0.519
-8.090 -9.314 1.206
-10.437 -11.509 1.081
-11.317 -11.945 0.604
-7.969 -9.611 1.634
-10.914 -10.664 -0.252
-8.648 -8.782 0.136
-10.282 -11.155 0.852
-11.317 -11.945 0.604
-10.173 -11.417 1.246
-11.399 -11.385 -0.043
-11.399 -11.385 -0.043
-8.648 -8.782 0.136
-9.527 -10.156 0.623
-7.979 -9.569 1.575
-9.843 -10.500 0.654
-10.957 -11.765 0.806
-9.527 -10.155 0.623
-11.399 -11.385 -0.043
-7.373 -7.889 0.491
-10.914 -10.664 -0.252
-10.132 -11.390 1.252
-11.322 -11.945 0.600
-11.342 -11.946 0.580
-9.594 -10.092 0.519
-11.399 -11.385 -0.043
-11.399 -11.385 -0.043
-9.738 -10.254 0.518
-7.979 -9.569 1.575
-10.436 -11.509 1.081
-8.095 -9.314 1.201
-11.399 -11.385 -0.043
-8.648 -8.783 0.137
-11.399 -11.385 -0.043
-10.914 -10.664 -0.252
-9.573 -9.190 -0.417
-10.282 -11.144 0.840
-8.186 -8.265 0.080
-8.164 -8.264 0.101
-9.738 -10.254 0.518
-7.374 -7.891 0.493
-10.436 -11.509 1.081
-10.436 -11.509 1.081
-9.738 -10.254 0.518
-11.317 -11.946 0.605
-7.373 -7.892 0.494
-10.914 -10.664 -0.252
-11.399 -11.385 -0.043
-8.186 -8.265 0.080
-8.186 -8.265 0.080
-10.770 -11.878 1.127
-10.914 -10.664 -0.252
-8.656 -8.785 0.131
-8.186 -8.265 0.080
-8.186 -8.265 0.080
-10.912 -10.664 -0.249
-7.373 -7.890 0.493
-10.914 -10.663 -0.253
-10.914 -10.663 -0.253
-10.914 -10.672 -0.244
-10.914 -10.662 -0.254
-7.550 -7.907 0.365
-10.915 -10.664 -0.252
-10.912 -10.663 -0.251
-8.117 -8.191 0.048
-7.134 -7.963 0.839
-9.594 -10.092 0.519
-9.545 -10.152 0.602
-11.342 -11.946 0.580
-10.437 -11.509 1.081
-10.912 -10.664 -0.250
-10.914 -10.663 -0.254
-10.912 -10.664 -0.250
-7.141 -8.234 1.105
-8.057 -8.259 0.216
-7.550 -7.910 0.368
-8.187 -8.267 0.082
-10.912 -10.664 -0.250
-7.160 -7.293 0.146
-10.912 -10.665 -0.248
-10.915 -10.664 -0.252
-10.914 -10.665 -0.251
-10.912 -10.664 -0.250
-11.318 -11.944 0.603
-10.915 -10.664 -0.252
-11.318 -11.945 0.604
-7.132 -8.027 0.901
-7.134 -7.963 0.839
-10.846 -10.678 -0.172
-8.186 -8.265 0.080
-10.914 -10.662 -0.253
-8.186 -8.265 0.080
-10.915 -10.664 -0.252
-8.164 -8.264 0.101
-8.158 -8.252 0.108
-8.287 -8.269 -0.016
-10.912 -10.664 -0.251
-9.594 -10.101 0.527
-8.158 -8.252 0.109
-11.318 -11.945 0.604
-10.467 -11.506 1.049
-11.318 -11.945 0.604
-8.186 -8.265 0.080
-8.326 -9.499 1.084
-8.058 -8.247 0.203
-10.914 -10.663 -0.253
-8.186 -8.265 0.080
-10.912 -10.664 -0.250
-8.185 -8.269 0.086
-10.912 -10.664 -0.250
-10.914 -10.663 -0.253
-10.912 -10.664 -0.250
-10.915 -10.664 -0.252
-8.186 -8.264 0.080
-8.158 -8.252 0.108
-9.738 -10.254 0.517
-10.912 -10.664 -0.250
-8.286 -8.269 -0.015
-11.322 -11.945 0.600
-8.186 -8.265 0.080
-9.252 -8.977 -0.292
-9.513 -9.845 0.353
-11.318 -11.945 0.604
-7.066 -8.227 1.173
-7.551 -7.907 0.364
-8.189 -8.264 0.077
-10.915 -10.663 -0.253
-9.546 -10.154 0.603
-10.915 -10.663 -0.253
-10.915 -10.663 -0.254
-10.913 -10.664 -0.250
-8.288 -8.268 -0.018
-8.166 -8.264 0.099
-10.141 -11.453 1.309
-8.188 -8.264 0.077
-7.162 -7.293 0.145
-10.913 -10.664 -0.250
-10.913 -10.664 -0.250
-9.497 -10.049 0.549
-8.029 -7.991 -0.038
-10.912 -10.664 -0.251
-10.915 -10.663 -0.254
-7.143 -8.230 1.099
-7.054 -8.026 0.978
-6.852 -7.942 1.104
-9.739 -10.254 0.517
-10.915 -10.664 -0.253
-8.865 -9.015 0.135
-10.023 -9.924 -0.113
-10.915 -10.663 -0.254
-8.186 -8.280 0.097
-8.060 -8.238 0.193
-7.375 -7.890 0.490
-7.162 -7.293 0.145
-8.183 -8.240 0.057
-8.189 -8.263 0.075
-10.915 -10.665 -0.251
-7.162 -7.293 0.145
-8.166 -8.264 0.100
-7.243 -7.877 0.637
-11.322 -11.941 0.594
-10.437 -11.509 1.080
-9.595 -10.101 0.526
-10.912 -10.663 -0.250
-10.914 -10.665 -0.250
-7.136 -7.963 0.837
-7.173 -7.306 0.147
-8.159 -8.253 0.108
-11.031 -11.967 0.949
-10.771 -11.890 1.137
-10.913 -10.664 -0.250
-7.162 -7.293 0.145
-10.904 -10.666 -0.234
-6.957 -7.222 0.278
-8.188 -8.264 0.077
-10.914 -10.663 -0.256
-7.054 -8.026 0.977
-8.166 -8.266 0.102
-10.915 -10.664 -0.253
-7.071 -7.961 0.899
-11.318 -11.945 0.604
-10.912 -10.666 -0.247
-7.162 -7.293 0.145
-7.133 -8.028 0.901
-7.137 -8.230 1.105
-10.140 -11.439 1.301
-7.062 -7.961 0.909
-7.130 -7.963 0.844
-8.176 -8.264 0.089
-7.047 -8.221 1.186
-7.134 -7.963 0.839
-7.310 -7.873 0.538
-10.921 -10.662 -0.260
-9.532 -10.156 0.619
-10.099 -10.018 -0.084
-10.920 -10.661 -0.261
-10.920 -10.661 -0.261
-7.142 -8.230 1.100
-8.159 -8.253 0.109
-10.921 -10.662 -0.261
-7.053 -8.026 0.978
-9.565 -9.189 -0.411
-11.322 -11.944 0.599
-8.158 -8.250 0.106
-10.920 -10.659 -0.262