-6.635 -6.742 0.112
-6.936 -6.991 0.059
-6.858 -6.945 0.092
-6.635 -6.742 0.112
-6.635 -6.742 0.112
-6.635 -6.742 0.112
-6.635 -6.742 0.112
-6.840 -7.005 0.169
-6.850 -7.008 0.163
-6.635 -6.742 0.112
-6.243 -6.466 0.227
-6.858 -6.945 0.091
-6.858 -6.945 0.091
-6.913 -7.231 0.322
-6.849 -7.008 0.163
-7.021 -7.250 0.233
-6.849 -7.008 0.163
-6.664 -6.985 0.325
-6.664 -6.985 0.325
-6.858 -6.945 0.091
-6.850 -7.008 0.163
-6.664 -6.985 0.325
-6.840 -7.005 0.169
-6.635 -6.742 0.112
-6.858 -6.945 0.091
-6.858 -6.945 0.091
-6.829 -7.218 0.392
-6.858 -6.945 0.091
-6.664 -6.985 0.325
-6.858 -6.945 0.091
-7.116 -7.436 0.324
-6.850 -7.008 0.163
-7.021 -7.250 0.233
-7.116 -7.436 0.324
-7.118 -7.437 0.323
-7.118 -7.437 0.323
-6.840 -7.005 0.169
-6.635 -6.742 0.112
-6.858 -6.945 0.091
-6.664 -6.985 0.325
-6.664 -6.985 0.325
-6.664 -6.985 0.325
-6.664 -6.985 0.325
-9.868 -10.809 0.939
-6.767 -7.013 0.250
-6.222 -6.465 0.247
-6.937 -6.991 0.057
-6.859 -6.945 0.090
-6.859 -6.945 0.090
-6.635 -6.742 0.111
-6.242 -6.466 0.227
-6.635 -6.742 0.111
-6.840 -7.005 0.169
-6.859 -6.945 0.090
-6.840 -7.005 0.169
-6.937 -6.991 0.057
-7.154 -7.609 0.458
-6.840 -7.005 0.169
-7.022 -7.250 0.232
-7.118 -7.437 0.323
-6.859 -6.945 0.090
-6.937 -6.991 0.057
-6.859 -6.945 0.090
-6.222 -6.465 0.247
-6.635 -6.742 0.111
-6.850 -7.008 0.163
-6.859 -6.945 0.090
-6.840 -7.005 0.169
-6.222 -6.465 0.247
-6.859 -6.945 0.090
-6.663 -6.985 0.326
-6.840 -7.005 0.169
-6.859 -6.945 0.090
-6.635 -6.742 0.111
-6.663 -6.985 0.326
-6.875 -7.179 0.307
-6.859 -6.945 0.090
-6.663 -6.985 0.326
-6.850 -7.008 0.163
-6.937 -6.991 0.057
-6.875 -7.180 0.309
-6.840 -7.005 0.169
-6.635 -6.742 0.111
-6.840 -7.005 0.169
-6.840 -7.005 0.169
-6.859 -6.945 0.090
-7.118 -7.437 0.323
-6.257 -6.463 0.209
-6.222 -6.465 0.247
-6.635 -6.742 0.111
-7.118 -7.437 0.323
-6.829 -7.218 0.393
-6.875 -7.180 0.308
-6.937 -6.991 0.057
-6.635 -6.742 0.111
-7.118 -7.437 0.323
-6.767 -7.013 0.250
-7.117 -7.436 0.324
-6.840 -7.005 0.169
-7.022 -7.250 0.232
-6.923 -7.582 0.663
-6.875 -7.180 0.309
-6.875 -7.180 0.309
-6.663 -6.985 0.326
-6.907 -7.564 0.661
-6.859 -6.945 0.090
-6.840 -7.005 0.169
-6.937 -6.991 0.057
-6.840 -7.005 0.169
-6.859 -6.945 0.090
-7.154 -7.609 0.459
-7.154 -7.609 0.459
-6.840 -7.005 0.170
-7.117 -7.436 0.324
-6.859 -6.945 0.090
-7.118 -7.437 0.323
-6.907 -7.564 0.661
-6.937 -6.991 0.058
-6.937 -6.991 0.058
-9.873 -10.809 0.934
-9.873 -10.809 0.934
-7.116 -7.436 0.324
-6.767 -7.013 0.250
-6.937 -6.991 0.057
-6.767 -7.013 0.250
-6.907 -7.564 0.661
-6.840 -7.005 0.169
-6.767 -7.013 0.250
-6.767 -7.013 0.250
-7.117 -7.436 0.324
-6.859 -6.945 0.090
-6.937 -6.991 0.057
-6.767 -7.013 0.250
-6.222 -6.465 0.247
-6.937 -6.991 0.057
-7.022 -7.250 0.232
-6.859 -6.945 0.090
-7.117 -7.436 0.324
-6.222 -6.465 0.247
-8.776 -9.148 0.373
-6.937 -6.991 0.057
-6.840 -7.005 0.169
-6.767 -7.013 0.250
-7.022 -7.250 0.232
-6.914 -7.231 0.320
-6.903 -7.562 0.662
-6.767 -7.013 0.250
-7.153 -7.609 0.460
-6.875 -7.179 0.307
-6.859 -6.945 0.090
-6.937 -6.991 0.057
-6.937 -6.991 0.057
-7.116 -7.436 0.324
-6.937 -6.991 0.057
-9.875 -10.833 0.957
-7.377 -8.077 0.703
-7.117 -7.437 0.324
-7.117 -7.437 0.324
-7.117 -7.437 0.324
-6.875 -7.179 0.307
-6.937 -6.991 0.057
-6.937 -6.991 0.057
-7.117 -7.437 0.324
-6.859 -6.945 0.090
-7.355 -8.074 0.721
-6.470 -7.662 1.195
-7.117 -7.436 0.324
-6.767 -7.013 0.250
-7.377 -8.077 0.703
-6.892 -7.562 0.674
-6.767 -7.013 0.250
-6.948 -7.585 0.640
-6.933 -7.568 0.638
-7.022 -7.250 0.232
-10.066 -10.832 0.765
-6.635 -6.742 0.111
-8.787 -9.148 0.362
-6.914 -7.231 0.320
-7.384 -8.097 0.716
-6.933 -7.567 0.638
-6.937 -6.991 0.057
-7.382 -8.080 0.699
-6.767 -7.013 0.251
-6.455 -7.657 1.204
-7.361 -8.076 0.718
-9.875 -10.809 0.932
-9.876 -10.832 0.955
-7.382 -8.080 0.699
-6.839 -7.005 0.170
-7.382 -8.080 0.699
-6.767 -7.013 0.251
-6.635 -6.742 0.111
-7.139 -7.609 0.473
-6.861 -6.945 0.088
-10.065 -10.832 0.767
-8.793 -9.148 0.356
-7.384 -8.097 0.716
-6.933 -7.567 0.638
-6.258 -6.463 0.207
-9.873 -10.809 0.934
-6.860 -6.945 0.088
-6.767 -7.013 0.250
-6.767 -7.013 0.250
-9.873 -10.809 0.934
-6.860 -6.945 0.088
-6.635 -6.742 0.111
-6.635 -6.742 0.111
-6.767 -7.013 0.250
-6.767 -7.013 0.250
-5.562 -6.228 0.670
-9.994 -10.834 0.840
-7.117 -7.436 0.324
-7.022 -7.250 0.232
-6.907 -7.564 0.661
-6.767 -7.013 0.251
-6.223 -6.465 0.246
-6.948 -7.585 0.640
-6.767 -7.013 0.251
-6.937 -6.991 0.057
-6.860 -6.945 0.089
-6.635 -6.742 0.111
-8.790 -9.148 0.360
-7.382 -8.080 0.700
-6.937 -6.991 0.057
-6.769 -7.494 0.729
-6.635 -6.742 0.111
-6.933 -7.568 0.638
-7.116 -7.437 0.325
-6.635 -6.742 0.111
-6.767 -7.013 0.251
-6.635 -6.742 0.111
-9.873 -10.809 0.934
-6.861 -6.945 0.088
-6.223 -6.465 0.246
-9.873 -10.809 0.934
-8.782 -9.148 0.368
-6.767 -7.013 0.250
-9.873 -10.833 0.958
-5.911 -6.218 0.310
-8.791 -9.148 0.359
-6.455 -7.657 1.205
-6.933 -7.568 0.638
-7.361 -8.077 0.718
-6.948 -7.585 0.640
-7.116 -7.437 0.325
-6.875 -7.179 0.308
-6.258 -6.463 0.207
-6.885 -7.230 0.349
-7.020 -7.250 0.234
-10.066 -10.833 0.766
-7.153 -7.611 0.462
-7.307 -8.142 0.839
-7.149 -7.609 0.463
-9.875 -10.809 0.932
-6.937 -6.991 0.058
-6.937 -6.991 0.058
-7.141 -7.608 0.471
-5.719 -6.416 0.699
-9.873 -10.809 0.934
-10.065 -10.832 0.767
-6.767 -7.013 0.251
-7.306 -8.142 0.840
-6.914 -7.231 0.321
-6.914 -7.231 0.321
-6.937 -6.991 0.058
-7.306 -8.142 0.840
-6.222 -6.465 0.247
-7.155 -7.609 0.458
-7.388 -8.077 0.691
-8.791 -9.148 0.359
-6.846 -7.223 0.381
-8.788 -9.148 0.362
-5.797 -6.530 0.737
-7.141 -7.608 0.471
-9.873 -10.809 0.934
-6.767 -7.013 0.251
-6.931 -7.564 0.636
-4.566 -5.001 0.439
-5.494 -6.040 0.550
-6.936 -6.991 0.058
-6.222 -6.465 0.247
-6.635 -6.742 0.112
-6.849 -7.008 0.164
-6.767 -7.013 0.251
-6.875 -7.018 0.148
-6.936 -6.991 0.058
-8.782 -9.148 0.368
-7.122 -7.608 0.489
-6.767 -7.013 0.250
-6.767 -7.013 0.250
-6.473 -7.662 1.192
-6.938 -6.991 0.057
-8.794 -9.148 0.356
-6.861 -6.945 0.088
-6.938 -6.991 0.057
-6.929 -7.565 0.639
-9.920 -10.810 0.887
-6.886 -7.230 0.347
-7.346 -8.148 0.806
-6.840 -7.005 0.169
-9.873 -10.809 0.934
-6.861 -6.945 0.088
-8.788 -9.148 0.362
-6.562 -8.193 1.632
-8.782 -9.147 0.368
-9.875 -10.809 0.932
-8.788 -9.148 0.362
-9.873 -10.809 0.934
-6.938 -6.990 0.056
-6.636 -6.742 0.111
-6.938 -6.990 0.056
-6.636 -6.742 0.111
-6.850 -7.008 0.162
-6.938 -6.990 0.056
-6.829 -7.217 0.392
-8.782 -9.147 0.367
-6.948 -7.585 0.640
-8.782 -9.148 0.368
-8.788 -9.148 0.362
-6.938 -6.991 0.057
-6.562 -8.193 1.632
-6.861 -6.945 0.088
-6.861 -6.945 0.088
-9.875 -10.809 0.932
-6.861 -6.945 0.088
-6.259 -6.462 0.206
-6.259 -6.462 0.206
-6.938 -6.990 0.057
-8.788 -9.148 0.362
-6.938 -6.990 0.056
-9.873 -10.832 0.958
-6.861 -6.945 0.088
-6.222 -6.465 0.246
-6.222 -6.465 0.246
-6.938 -6.990 0.056
-6.767 -7.013 0.250
-6.829 -7.217 0.392
-6.861 -6.945 0.088
-7.371 -8.073 0.704
-6.938 -6.991 0.057
-7.320 -8.144 0.828
-6.938 -6.991 0.057
-5.656 -7.596 0.299
-6.859 -6.945 0.090
-8.786 -9.149 0.365
-8.788 -9.148 0.362
-7.350 -8.069 0.722
-6.223 -6.465 0.246
-6.223 -6.465 0.246
-6.938 -6.991 0.057
-6.938 -6.991 0.057
-6.948 -7.585 0.640
-6.767 -7.013 0.251
-6.848 -7.008 0.164
-6.937 -6.991 0.057
-6.562 -8.193 1.632
-7.371 -8.073 0.704
-7.371 -8.073 0.704
-6.938 -6.991 0.057
-5.534 -6.430 0.897
-6.887 -7.229 0.346
-6.923 -7.561 0.642
-5.911 -6.218 0.310
-8.791 -9.148 0.359
-6.861 -6.945 0.088
-6.948 -7.585 0.640
-6.562 -8.193 1.632
-7.117 -7.436 0.324
-6.923 -7.561 0.642
-6.923 -7.561 0.642
-6.948 -7.585 0.640
-6.671 -6.985 0.318
-5.476 -6.604 1.129
-6.767 -7.013 0.251
-6.937 -6.991 0.057
-7.383 -8.080 0.699
-10.065 -10.832 0.767
-6.635 -6.742 0.111
-6.635 -6.742 0.111
-9.873 -10.809 0.934
-6.845 -7.006 0.165
-7.139 -7.609 0.473
-7.383 -8.097 0.716
-6.562 -8.193 1.632
-7.371 -8.073 0.704
-6.938 -6.991 0.057
-9.678 -10.522 0.839
-6.635 -6.742 0.111
-6.829 -7.217 0.392
-6.938 -6.990 0.056
-6.636 -6.742 0.111
-6.840 -7.005 0.169
-6.938 -6.990 0.056
-6.850 -7.008 0.162
-9.873 -10.809 0.934
-8.788 -9.148 0.362
-6.562 -8.193 1.632
-9.877 -10.809 0.930
-6.846 -7.006 0.164
-6.938 -6.990 0.056
-6.836 -7.218 0.386
-5.534 -6.430 0.897
-8.788 -9.148 0.362
-6.938 -6.990 0.056
-6.938 -6.990 0.056
-9.875 -10.809 0.932
-6.938 -6.990 0.057
-6.897 -7.558 0.665
-6.836 -7.218 0.386
-7.122 -7.607 0.489
-8.788 -9.148 0.362
-6.861 -6.945 0.088
-6.840 -7.005 0.169
-6.948 -7.585 0.640
-8.793 -9.148 0.356
-5.540 -7.006 1.468
-5.534 -6.430 0.897
-7.122 -7.608 0.489
-7.022 -7.250 0.231
-5.674 -6.596 0.924
-6.845 -7.006 0.165
-9.875 -10.832 0.956
-6.889 -7.261 0.376
-8.787 -9.148 0.363
-6.767 -7.013 0.250
-6.767 -7.013 0.250
-8.782 -9.148 0.368
-6.562 -8.193 1.632
-6.649 -6.983 0.338
-8.788 -9.148 0.362
-6.938 -6.990 0.056
-5.407 -6.355 0.950
-8.791 -9.148 0.358
-7.371 -8.073 0.704
-7.140 -7.608 0.471
-8.792 -9.148 0.358
-6.223 -6.465 0.246
-7.023 -7.250 0.231
-5.911 -6.218 0.310
-6.938 -6.990 0.056
-6.938 -6.990 0.056
-6.861 -6.945 0.088
-9.876 -10.832 0.955
-6.861 -6.945 0.088
-7.350 -8.069 0.722
-7.371 -8.073 0.704
-6.474 -7.662 1.191
-6.915 -7.231 0.319
-6.923 -7.561 0.642
-6.840 -7.005 0.169
-5.911 -6.218 0.310
-6.938 -6.990 0.056
-6.938 -6.990 0.056
-6.636 -6.742 0.111
-7.383 -8.097 0.716
-5.911 -6.219 0.310
-6.875 -7.182 0.310
-10.065 -10.832 0.767
-7.117 -7.436 0.324
-6.938 -6.991 0.057
-8.793 -9.148 0.356
-6.846 -7.223 0.379
-6.875 -7.180 0.309
-6.847 -7.223 0.379
-7.022 -7.250 0.231
-6.767 -7.013 0.250
-6.880 -8.401 1.523
-6.938 -6.991 0.057
-7.116 -7.436 0.324
-7.116 -7.436 0.324
-7.116 -7.436 0.324
-6.767 -7.013 0.250
-6.861 -6.945 0.088
-6.938 -6.991 0.057
-6.938 -6.991 0.057
-6.875 -7.180 0.309
-8.782 -9.148 0.368
-7.122 -7.608 0.489
-7.122 -7.608 0.489
-5.867 -6.500 0.635
-5.867 -6.500 0.635
-6.767 -7.013 0.250
-5.476 -6.604 1.129
-6.937 -6.991 0.057
-7.122 -7.608 0.489
-5.540 -7.006 1.468
-6.863 -8.404 1.543
-6.938 -6.991 0.057
-6.914 -7.231 0.320
-6.914 -7.231 0.320
-7.304 -8.143 0.843
-6.938 -6.991 0.057
-6.938 -6.991 0.057
-6.938 -6.991 0.057
-7.152 -7.610 0.462
-6.635 -6.742 0.112
-7.382 -8.097 0.718
-5.911 -6.219 0.310
-7.116 -7.437 0.324
-6.859 -6.945 0.090
-6.932 -7.567 0.639
-8.791 -9.148 0.359
-6.767 -7.014 0.250
-8.782 -9.148 0.368
-6.859 -6.945 0.090
-5.184 -6.240 1.058
-6.947 -7.585 0.641
-8.787 -9.148 0.362
-7.359 -8.077 0.720
-5.719 -6.416 0.699
-9.873 -10.809 0.934
-6.522 -8.194 1.674
-6.259 -6.462 0.206
-6.923 -7.561 0.642
-6.948 -7.585 0.640
-7.122 -7.608 0.489
-5.562 -6.228 0.670
-8.791 -9.148 0.359
-6.863 -8.404 1.543
-6.930 -7.565 0.639
-6.937 -6.991 0.057
-7.140 -7.608 0.473
-6.861 -6.945 0.088
-6.840 -7.005 0.169
-6.767 -7.013 0.250
-6.223 -6.465 0.246
-9.873 -10.809 0.934
-6.767 -7.013 0.250
-6.562 -8.193 1.632
-5.911 -6.218 0.310
-6.948 -7.585 0.640
-6.937 -6.991 0.057
-6.948 -7.585 0.640
-5.911 -6.219 0.310
-6.767 -7.013 0.251
-6.258 -6.463 0.207
-6.937 -6.991 0.057
-7.382 -8.080 0.700
-5.540 -7.006 1.468
-6.937 -6.991 0.057
-5.911 -6.218 0.310
-8.787 -9.148 0.363
-6.860 -6.945 0.089
-6.948 -7.585 0.640
-6.937 -6.991 0.057
-6.937 -6.991 0.057
-6.258 -6.463 0.207
-6.562 -8.193 1.632
-6.562 -8.193 1.632
-8.791 -9.148 0.359
-6.938 -6.990 0.057
-6.562 -8.193 1.632
-6.846 -7.006 0.164
-6.840 -7.005 0.169
-6.260 -6.462 0.205
-6.861 -6.945 0.088
-6.767 -7.013 0.250
-6.948 -7.585 0.640
-6.767 -7.013 0.251
-6.948 -7.585 0.640
-6.767 -7.013 0.251
-6.827 -7.218 0.394
-6.223 -6.465 0.246
-6.663 -6.985 0.326
-6.937 -6.991 0.057
-6.937 -6.991 0.057
-6.767 -7.013 0.250
-6.914 -7.231 0.320
-7.139 -7.609 0.473
-5.179 -6.980 1.804
-7.118 -7.437 0.323
-7.116 -7.436 0.324
-9.876 -10.833 0.955
-6.937 -6.991 0.057
-7.122 -7.608 0.489
-5.911 -6.218 0.310
-6.850 -7.008 0.163
-6.903 -7.562 0.662
-8.791 -9.148 0.359
-6.767 -7.013 0.250
-6.875 -7.179 0.307
-6.863 -8.404 1.543
-9.876 -10.833 0.955
-6.938 -6.991 0.057
-5.419 -7.021 1.604
-6.839 -7.005 0.170
-8.787 -9.148 0.363
-5.518 -6.055 0.541
-5.606 -5.966 0.364
-5.518 -6.055 0.541
-5.565 -6.049 0.487
-5.622 -5.965 0.347
-5.606 -5.966 0.364
-5.459 -5.956 0.500
-5.395 -6.091 0.699
-5.606 -5.966 0.364
-5.395 -6.091 0.699
-5.622 -5.965 0.347
-5.481 -5.954 0.476
-5.606 -5.966 0.364
-5.459 -5.955 0.500
-5.561 -6.228 0.670
-5.282 -6.018 0.738
-5.892 -6.500 0.611
-5.892 -6.500 0.611
-5.459 -5.955 0.500
-5.459 -5.955 0.500
-5.518 -6.055 0.541
-5.561 -6.228 0.670
-5.459 -5.956 0.501
-5.606 -5.966 0.364
-5.353 -5.777 0.428
-5.566 -6.049 0.487
-5.561 -6.228 0.670
-5.566 -6.049 0.487
-5.566 -6.049 0.487
-5.566 -6.049 0.487
-5.991 -6.393 0.404
-5.732 -6.416 0.686
-5.991 -6.393 0.404
-4.919 -5.442 0.526
-5.732 -6.416 0.686
-5.395 -6.091 0.699
-5.606 -5.966 0.364
-5.866 -6.499 0.636
-5.866 -6.499 0.636
-5.353 -5.777 0.428
-5.368 -5.777 0.414
-5.866 -6.499 0.636
-5.497 -6.056 0.562
-5.566 -6.049 0.487
-5.532 -6.430 0.900
-5.352 -5.777 0.428
-5.352 -5.777 0.428
-5.618 -6.226 0.612
-5.566 -6.049 0.487
-5.395 -6.091 0.699
-5.566 -6.049 0.487
-5.618 -6.226 0.612
-5.562 -6.228 0.670
-5.606 -5.966 0.364
-5.562 -6.228 0.670
-5.481 -5.954 0.476
-5.566 -6.049 0.487
-5.566 -6.049 0.487
-5.561 -6.228 0.670
-5.497 -6.056 0.563
-5.991 -6.393 0.404
-5.395 -6.091 0.699
-5.282 -6.018 0.738
-5.892 -6.500 0.611
-5.195 -6.236 1.044
-5.459 -5.955 0.500
-5.482 -5.954 0.476
-5.892 -6.500 0.611
-5.566 -6.049 0.487
-5.561 -6.228 0.670
-5.561 -6.228 0.670
-5.865 -6.499 0.637
-5.459 -5.956 0.500
-5.497 -6.056 0.563
-5.991 -6.393 0.404
-5.085 -5.979 0.897
-5.865 -6.499 0.637
-5.865 -6.499 0.637
-5.865 -6.499 0.637
-5.497 -6.056 0.563
-5.497 -6.056 0.563
-5.532 -6.429 0.898
-5.606 -5.966 0.364
-5.865 -6.499 0.637
-5.561 -6.228 0.670
-5.892 -6.500 0.611
-5.991 -6.393 0.404
-5.618 -6.226 0.612
-5.618 -6.226 0.612
-5.991 -6.393 0.405
-4.835 -5.536 0.704
-5.892 -6.500 0.611
-5.722 -6.415 0.696
-5.395 -6.091 0.699
-5.475 -5.955 0.483
-5.866 -6.499 0.636
-5.991 -6.393 0.404
-5.991 -6.393 0.405
-5.390 -5.773 0.387
-5.390 -5.773 0.387
-5.892 -6.500 0.611
-5.389 -5.773 0.387
-5.892 -6.500 0.611
-5.389 -5.773 0.387
-5.353 -5.777 0.428
-5.389 -5.773 0.387
-5.353 -5.777 0.428
-5.700 -6.345 0.646
-5.481 -5.954 0.476
-5.496 -6.041 0.548
-5.732 -6.416 0.686
-5.022 -5.587 0.567
-5.475 -5.955 0.483
-5.481 -5.954 0.476
-5.459 -5.955 0.500
-5.481 -5.954 0.476
-5.459 -5.955 0.500
-5.459 -5.955 0.500
-4.919 -5.442 0.526
-5.221 -6.079 0.860
-5.618 -6.226 0.612
-5.518 -6.055 0.541
-5.497 -6.055 0.562
-4.919 -5.442 0.527
-5.892 -6.500 0.611
-4.919 -5.442 0.527
-5.618 -6.226 0.612
-5.562 -6.228 0.670
-5.606 -5.966 0.364
-4.571 -5.311 0.743
-5.459 -5.955 0.500
-5.481 -5.954 0.476
-5.353 -5.777 0.428
-5.991 -6.393 0.404
-5.991 -6.393 0.404
-5.566 -6.049 0.487
-5.395 -6.091 0.699
-5.866 -6.499 0.636
-5.222 -6.079 0.860
-5.701 -6.349 0.650
-5.701 -6.347 0.648
-5.353 -5.777 0.427
-5.566 -6.049 0.487
-5.497 -6.056 0.563
-5.459 -5.956 0.500
-5.991 -6.393 0.405
-5.459 -5.955 0.500
-5.732 -6.416 0.686
-5.991 -6.393 0.405
-5.606 -5.966 0.364
-5.353 -5.777 0.427
-5.622 -5.965 0.347
-5.533 -6.429 0.898
-5.459 -5.955 0.500
-5.455 -5.956 0.505
-5.353 -5.544 0.195
-5.566 -6.049 0.486
-5.458 -5.956 0.502
-5.352 -5.777 0.428
-4.919 -5.442 0.527
-5.605 -5.966 0.365
-5.566 -6.049 0.486
-5.518 -6.055 0.541
-5.023 -5.586 0.565
-5.518 -6.055 0.541
-5.991 -6.393 0.404
-5.296 -6.078 0.784
-5.481 -5.954 0.476
-4.919 -5.442 0.527
-5.723 -6.415 0.695
-5.395 -6.091 0.699
-5.722 -6.415 0.695
-5.622 -5.965 0.347
-5.622 -5.965 0.347
-5.991 -6.393 0.404
-5.991 -6.393 0.404
-5.991 -6.393 0.404
-5.498 -6.056 0.562
-5.395 -6.091 0.699
-5.561 -6.228 0.670
-5.389 -5.773 0.388
-5.282 -6.018 0.739
-5.618 -6.226 0.612
-5.991 -6.393 0.404
-5.459 -5.955 0.500
-5.395 -6.091 0.699
-5.395 -6.091 0.699
-5.991 -6.393 0.404
-5.864 -6.498 0.637
-5.022 -5.587 0.568
-5.296 -6.078 0.784
-6.030 -6.302 0.275
-5.495 -6.041 0.550
-5.868 -6.500 0.635
-5.085 -5.979 0.897
-5.352 -5.777 0.428
-5.458 -5.955 0.501
-4.919 -5.442 0.527
-5.367 -5.777 0.414
-5.866 -6.499 0.636
-5.481 -5.954 0.476
-5.991 -6.393 0.404
-5.991 -6.393 0.404
-5.573 -6.430 0.860
-5.991 -6.393 0.404
-5.353 -5.776 0.428
-4.571 -5.311 0.743
-5.573 -6.430 0.860
-5.085 -5.979 0.897
-5.296 -6.078 0.784
-5.533 -6.429 0.898
-5.459 -5.955 0.501
-4.919 -5.442 0.527
-4.919 -5.442 0.527
-5.533 -6.429 0.898
-5.701 -6.348 0.648
-5.701 -6.347 0.647
-5.296 -6.078 0.784
-5.723 -6.415 0.695
-5.389 -5.773 0.388
-5.565 -6.049 0.487
-5.518 -6.055 0.541
-5.352 -5.777 0.428
-5.352 -5.777 0.428
-5.475 -5.955 0.484
-5.459 -5.955 0.501
-5.222 -6.079 0.860
-5.565 -6.049 0.487
-4.918 -5.442 0.527
-5.518 -6.055 0.541
-5.389 -5.773 0.387
-5.533 -6.429 0.898
-5.024 -5.586 0.565
-5.024 -5.586 0.565
-5.991 -6.393 0.404
-5.395 -6.091 0.699
-5.395 -6.091 0.699
-5.533 -6.429 0.897
-5.892 -6.500 0.611
-5.459 -5.955 0.500
-4.837 -5.493 0.658
-5.991 -6.393 0.404
-5.283 -6.018 0.738
-5.283 -6.018 0.738
-5.459 -5.955 0.500
-5.518 -6.055 0.541
-6.030 -6.302 0.275
-5.618 -6.226 0.612
-6.931 -7.564 0.636
-5.701 -6.349 0.650
-5.085 -5.979 0.897
-5.991 -6.393 0.404
-4.919 -5.442 0.526
-5.459 -5.955 0.500
-4.566 -5.002 0.440
-5.352 -5.776 0.428
-5.606 -5.966 0.364
-5.395 -6.091 0.699
-4.845 -5.494 0.652
-5.352 -5.777 0.428
-5.389 -5.773 0.388
-5.296 -6.078 0.784
-5.518 -6.055 0.541
-5.459 -5.955 0.501
-5.991 -6.393 0.404
-5.532 -6.428 0.898
-5.353 -5.776 0.428
-5.459 -5.955 0.500
-5.498 -6.056 0.562
-5.475 -5.955 0.484
-5.560 -6.227 0.671
-5.892 -6.500 0.611
-5.892 -6.500 0.611
-5.195 -6.236 1.044
-5.481 -5.954 0.476
-5.222 -6.079 0.859
-5.481 -5.954 0.476
-5.296 -6.078 0.784
-5.086 -5.565 0.483
-5.024 -5.585 0.564
-5.459 -5.955 0.501
-5.459 -5.955 0.501
-5.701 -6.349 0.649
-5.353 -5.776 0.428
-5.221 -6.079 0.860
-5.395 -6.091 0.699
-5.222 -6.079 0.859
-5.222 -6.079 0.859
-5.701 -6.349 0.649
-5.565 -6.049 0.487
-5.572 -6.431 0.861
-5.991 -6.393 0.404
-6.030 -6.302 0.275
-5.408 -6.374 0.967
-5.563 -6.228 0.669
-5.026 -5.585 0.562
-5.225 -6.079 0.856
-5.518 -6.055 0.541
-6.030 -6.302 0.275
-5.459 -5.955 0.500
-5.518 -6.055 0.541
-5.010 -5.963 0.956
-5.701 -6.349 0.649
-5.475 -5.955 0.484
-5.389 -5.773 0.387
-5.395 -6.091 0.699
-5.352 -5.777 0.428
-5.024 -5.585 0.564
-4.597 -5.311 0.717
-5.296 -6.078 0.784
-5.533 -6.429 0.897
-4.919 -5.442 0.527
-5.459 -5.955 0.500
-5.352 -5.777 0.428
-5.222 -6.079 0.859
-5.222 -6.079 0.859
-5.352 -5.777 0.428
-5.701 -6.349 0.649
-5.991 -6.393 0.404
-5.459 -5.955 0.500
-5.654 -6.319 0.668
-5.532 -6.428 0.898
-5.224 -6.079 0.857
-5.389 -5.773 0.387
-5.815 -6.530 0.718
-5.475 -5.955 0.483
-5.618 -6.226 0.612
-5.458 -5.956 0.501
-5.458 -5.956 0.501
-5.394 -5.772 0.382
-5.458 -5.956 0.501
-5.085 -5.979 0.897
-5.892 -6.500 0.611
-5.475 -5.955 0.483
-6.030 -6.302 0.275
-5.991 -6.393 0.404
-4.919 -5.442 0.526
-5.296 -6.078 0.784
-6.030 -6.302 0.275
-5.223 -6.079 0.859
-5.026 -5.585 0.562
-5.223 -6.079 0.859
-5.991 -6.393 0.404
-5.991 -6.393 0.404
-5.459 -5.955 0.500
-5.395 -6.091 0.699
-5.296 -6.078 0.784
-5.222 -6.079 0.859
-5.222 -6.079 0.859
-5.459 -5.955 0.500
-5.222 -6.079 0.859
-5.459 -5.955 0.500
-5.395 -6.091 0.699
-5.892 -6.500 0.611
-5.296 -6.078 0.784
-5.533 -6.429 0.898
-4.919 -5.442 0.527
-5.533 -6.429 0.898
-5.222 -6.079 0.860
-5.085 -5.979 0.897
-4.597 -5.311 0.717
-5.475 -5.955 0.484
-5.892 -6.500 0.611
-5.222 -6.079 0.859
-5.352 -5.776 0.428
-5.352 -5.776 0.428
-4.919 -5.442 0.527
-9.875 -10.809 0.932
-5.395 -6.091 0.699
-5.352 -5.777 0.428
-5.701 -6.349 0.649
-5.532 -6.428 0.898
-5.283 -6.018 0.738
-5.353 -5.776 0.428
-5.221 -6.079 0.860
-5.892 -6.500 0.611
-5.738 -6.533 0.799
-5.459 -5.955 0.500
-5.352 -5.777 0.428
-5.222 -6.079 0.859
-5.991 -6.393 0.404
-5.085 -5.979 0.897
-5.352 -5.777 0.428
-5.475 -5.955 0.484
-5.395 -6.091 0.699
-5.024 -5.585 0.564
-5.866 -6.499 0.636
-5.459 -5.955 0.501
-5.459 -5.955 0.501
-5.010 -5.963 0.956
-5.222 -6.079 0.860
-5.222 -6.079 0.860
-5.311 -6.019 0.710
-5.991 -6.393 0.404
-5.296 -6.078 0.784
-5.030 -5.683 0.657
-5.222 -6.079 0.859
-5.475 -5.955 0.484
-5.222 -6.079 0.859
-5.459 -5.955 0.501
-4.862 -5.496 0.637
-5.618 -6.226 0.611
-5.722 -6.415 0.695
-6.328 -6.596 0.271
-5.892 -6.500 0.611
-5.261 -6.239 0.981
-5.222 -6.079 0.859
-5.222 -6.079 0.859
-5.222 -6.079 0.859
-5.024 -5.585 0.565
-5.723 -6.415 0.695
-5.311 -6.019 0.711
-5.458 -5.955 0.501
-5.723 -6.415 0.694
-5.475 -5.954 0.483
-5.296 -6.078 0.784
-5.222 -6.079 0.859
-5.475 -5.954 0.483
-5.475 -5.954 0.483
-4.919 -5.442 0.526
-5.622 -5.965 0.347
-5.011 -5.963 0.955
-5.195 -6.236 1.044
-5.701 -6.349 0.649
-5.283 -6.018 0.738
-4.838 -5.492 0.657
-4.838 -5.492 0.657
-5.892 -6.500 0.611
-5.414 -6.375 0.963
-5.699 -6.760 1.063
-5.010 -5.963 0.956
-5.085 -5.565 0.483
-5.892 -6.500 0.611
-5.395 -6.091 0.699
-5.222 -6.079 0.859
-5.533 -6.429 0.897
-5.222 -6.079 0.859
-4.837 -5.493 0.659
-5.222 -6.079 0.859
-5.892 -6.500 0.611
-5.573 -6.430 0.860
-5.222 -6.079 0.859
-4.570 -5.311 0.743
-5.459 -5.955 0.500
-5.222 -6.079 0.859
-5.222 -6.079 0.859
-4.920 -5.412 0.496
-5.367 -5.777 0.414
-5.892 -6.500 0.611
-5.534 -6.429 0.897
-5.534 -6.429 0.897
-5.353 -5.776 0.428
-5.459 -5.955 0.500
-5.991 -6.393 0.404
-5.353 -5.776 0.427
-5.701 -6.349 0.649
-5.701 -6.349 0.649
-5.011 -5.963 0.955
-5.296 -6.078 0.784
-5.459 -5.955 0.501
-6.054 -6.624 0.574
-5.283 -6.018 0.737
-5.283 -6.018 0.737
-5.353 -5.776 0.427
-5.367 -5.777 0.414
-5.459 -5.955 0.500
-5.222 -6.079 0.859
-5.222 -6.079 0.859
-5.352 -5.777 0.428
-5.195 -6.236 1.044
-4.919 -5.442 0.526
-5.459 -5.955 0.500
-5.010 -5.963 0.956
-5.475 -5.955 0.484
-5.311 -6.019 0.710
-5.024 -5.586 0.565
-5.222 -6.079 0.859
-5.892 -6.500 0.611
-4.919 -5.442 0.526
-5.222 -6.079 0.859
-5.991 -6.393 0.404
-5.864 -6.498 0.637
-5.218 -6.682 1.467
-5.991 -6.393 0.404
-5.389 -5.773 0.387
-5.459 -5.955 0.500
-5.022 -5.587 0.568
-5.353 -5.776 0.428
-7.478 -8.146 0.673
-7.478 -8.146 0.673
-7.478 -8.146 0.673
-7.478 -8.146 0.673
-7.478 -8.146 0.673
-7.478 -8.146 0.673
-9.875 -10.809 0.932
-9.860 -11.600 1.739
-7.144 -7.607 0.466
-7.144 -7.607 0.466
-9.897 -10.807 0.909
-7.144 -7.607 0.466
-7.329 -8.142 0.816
-9.897 -10.807 0.909
-7.144 -7.607 0.466
-7.314 -8.141 0.830
-7.144 -7.607 0.466
-10.295 -11.182 0.890
-7.144 -7.607 0.466
-7.144 -7.607 0.466
-9.860 -11.600 1.739
-7.144 -7.607 0.466
-9.876 -10.832 0.955
-6.831 -7.218 0.391
-9.679 -10.522 0.839
-7.144 -7.607 0.466
-10.295 -11.182 0.890
-7.314 -8.141 0.830
-7.144 -7.607 0.466
-7.144 -7.607 0.466
-7.144 -7.607 0.466
-7.144 -7.607 0.466
-7.158 -7.608 0.453
-8.792 -9.147 0.357
-7.144 -7.607 0.466
-7.144 -7.607 0.466
-9.897 -10.807 0.909
-6.831 -7.218 0.391
-7.144 -7.607 0.466
-7.144 -7.607 0.466
-6.831 -7.218 0.391
-10.067 -10.832 0.765
-7.144 -7.607 0.466
-7.144 -7.607 0.466
-7.144 -7.607 0.466
-7.083 -7.584 0.505
-9.897 -10.807 0.909
-7.144 -7.607 0.466
-7.144 -7.607 0.466
-8.792 -9.147 0.357
-8.792 -9.147 0.357
-8.792 -9.147 0.357
-9.875 -10.809 0.932
-8.792 -9.147 0.357
-6.908 -7.560 0.655
-8.792 -9.147 0.357
-6.457 -7.649 1.196
-7.144 -7.607 0.466
-8.792 -9.147 0.357
-7.144 -7.607 0.466
-7.144 -7.607 0.466
-6.908 -7.560 0.655
-8.792 -9.147 0.357
-8.792 -9.147 0.357
-6.908 -7.560 0.655
-8.792 -9.147 0.357
-7.144 -7.607 0.466
-6.841 -7.005 0.168
-9.876 -10.832 0.955
-7.144 -7.607 0.466
-6.908 -7.560 0.655
-10.295 -11.182 0.890
-7.314 -8.141 0.830
-7.144 -7.607 0.466
-7.144 -7.607 0.466
-7.144 -7.607 0.466
-6.908 -7.560 0.655
-6.908 -7.560 0.655
-6.908 -7.560 0.655
-6.908 -7.560 0.655
-7.144 -7.607 0.466
-7.144 -7.607 0.466
-9.897 -10.807 0.909
-7.314 -8.141 0.830
-6.908 -7.560 0.655
-6.908 -7.560 0.655
-6.908 -7.560 0.655
-9.875 -10.809 0.932
-7.144 -7.607 0.466
-7.144 -7.607 0.466
-7.144 -7.607 0.466
-9.875 -10.809 0.932
-6.908 -7.560 0.655
-8.792 -9.147 0.357
-7.377 -8.071 0.696
-6.841 -7.005 0.168
-8.792 -9.147 0.357
-8.792 -9.147 0.357
-8.792 -9.147 0.357
-10.067 -10.832 0.765
-6.908 -7.560 0.655
-6.850 -7.008 0.163
-10.249 -11.187 0.941
-7.144 -7.607 0.466
-6.831 -7.218 0.391
-8.792 -9.147 0.357
-9.876 -10.832 0.955
-9.876 -10.832 0.955
-8.792 -9.147 0.357
-6.841 -7.005 0.168
-6.841 -7.005 0.168
-6.908 -7.560 0.655
-8.792 -9.147 0.357
-7.314 -8.141 0.830
-6.908 -7.560 0.655
-8.792 -9.147 0.357
-7.144 -7.607 0.466
-9.875 -10.809 0.932
-7.124 -7.603 0.483
-8.792 -9.147 0.357
-7.377 -8.071 0.696
-8.792 -9.147 0.357
-8.792 -9.147 0.357
-6.908 -7.560 0.655
-8.792 -9.147 0.357
-8.792 -9.147 0.357
-10.067 -10.832 0.765
-6.831 -7.218 0.391
-6.908 -7.560 0.655
-7.144 -7.607 0.466
-6.908 -7.560 0.655
-9.875 -10.809 0.932
-9.875 -10.809 0.932
-7.314 -8.141 0.830
-7.144 -7.607 0.466
-8.792 -9.147 0.357
-6.841 -7.005 0.168
-8.792 -9.147 0.357
-6.908 -7.560 0.655
-9.875 -10.809 0.932
-8.792 -9.147 0.357
-8.792 -9.147 0.357
-9.875 -10.809 0.932
-8.792 -9.147 0.357
-8.792 -9.147 0.357
-10.249 -11.187 0.941
-8.792 -9.147 0.357
-8.792 -9.147 0.357
-6.665 -6.985 0.324
-6.841 -7.005 0.168
-6.841 -7.005 0.168
-8.792 -9.147 0.357
-7.144 -7.607 0.466
-8.792 -9.147 0.357
-7.144 -7.607 0.466
-10.070 -11.516 1.448
-8.792 -9.147 0.357
-10.249 -11.187 0.941
-6.905 -7.561 0.660
-7.367 -8.073 0.709
-7.595 -8.077 0.485
-8.792 -9.147 0.357
-6.908 -7.559 0.655
-7.314 -8.141 0.831
-7.377 -8.070 0.695
-8.792 -9.147 0.357
-6.908 -7.559 0.655
-6.875 -7.180 0.308
-7.314 -8.141 0.831
-7.314 -8.141 0.831
-8.792 -9.147 0.357
-8.792 -9.147 0.357
-7.158 -7.608 0.453
-6.908 -7.559 0.655
-6.875 -7.180 0.308
-6.832 -7.219 0.390
-6.842 -7.006 0.168
-6.908 -7.559 0.655
-7.157 -7.608 0.454
-7.314 -8.141 0.831
-8.792 -9.147 0.357
-7.158 -7.608 0.453
-7.377 -8.070 0.695
-6.832 -7.219 0.390
-6.832 -7.219 0.390
-9.875 -10.809 0.932
-6.665 -6.985 0.324
-8.792 -9.147 0.357
-7.377 -8.070 0.695
-7.118 -7.437 0.322
-6.851 -7.009 0.162
-6.832 -7.219 0.390
-8.792 -9.147 0.357
-6.908 -7.559 0.655
-10.066 -10.832 0.766
-6.665 -6.985 0.324
-7.145 -7.607 0.466
-7.145 -7.607 0.466
-6.665 -6.985 0.324
-8.792 -9.147 0.357
-7.145 -7.607 0.466
-6.832 -7.219 0.390
-8.792 -9.147 0.357
-7.314 -8.141 0.831
-7.314 -8.141 0.831
-6.635 -6.742 0.111
-6.832 -7.218 0.390
-6.665 -6.985 0.324
-8.792 -9.147 0.357
-9.876 -10.832 0.955
-8.792 -9.147 0.357
-6.908 -7.559 0.655
-6.850 -7.009 0.163
-6.850 -7.009 0.163
-8.792 -9.147 0.357
-9.875 -10.809 0.932
-7.118 -7.437 0.322
-6.635 -6.742 0.111
-7.377 -8.070 0.695
-7.145 -7.607 0.466
-8.792 -9.147 0.357
-7.377 -8.070 0.695
-9.876 -10.832 0.955
-9.875 -10.809 0.932
-8.792 -9.147 0.357
-10.249 -11.187 0.942
-8.792 -9.147 0.357
-6.875 -7.180 0.308
-8.792 -9.147 0.357
-8.792 -9.147 0.357
-10.249 -11.187 0.941
-9.875 -10.809 0.932
-6.851 -7.009 0.162
-6.832 -7.219 0.390
-9.875 -10.809 0.932
-8.792 -9.147 0.357
-10.066 -10.832 0.766
-6.908 -7.559 0.655
-6.665 -6.985 0.324
-8.792 -9.147 0.357
-7.145 -7.607 0.466
-7.377 -8.070 0.695
-9.875 -10.809 0.932
-8.792 -9.147 0.357
-6.665 -6.985 0.324
-8.792 -9.147 0.357
-7.377 -8.070 0.695
-7.158 -7.608 0.454
-7.118 -7.437 0.322
-9.892 -10.808 0.914
-6.850 -7.009 0.162
-9.875 -10.809 0.932
-9.875 -10.809 0.932
-7.311 -8.141 0.835
-7.311 -8.141 0.835
-9.875 -10.809 0.932
-7.311 -8.141 0.835
-7.367 -8.071 0.707
-8.792 -9.147 0.357
-6.841 -7.005 0.169
-6.925 -7.581 0.660
-8.791 -9.147 0.358
-8.791 -9.147 0.358
-8.791 -9.147 0.358
-6.925 -7.581 0.660
-8.791 -9.147 0.358
-8.791 -9.147 0.358
-8.780 -9.147 0.369
-8.792 -9.147 0.357
-6.906 -7.561 0.659
-6.906 -7.561 0.659
-9.876 -10.832 0.955
-8.792 -9.147 0.357
-6.455 -7.651 1.199
-7.117 -7.436 0.323
-6.925 -7.581 0.660
-8.791 -9.147 0.358
-6.841 -7.005 0.169
-7.143 -7.608 0.469
-9.875 -10.809 0.932
-8.780 -9.147 0.369
-6.914 -7.231 0.320
-6.831 -7.218 0.391
-6.925 -7.581 0.660
-9.875 -10.809 0.932
-6.950 -7.583 0.636
-6.925 -7.581 0.660
-6.841 -7.005 0.169
-8.791 -9.147 0.358
-9.875 -10.809 0.932
-6.663 -6.985 0.325
-7.143 -7.608 0.469
-6.636 -6.742 0.111
-6.925 -7.581 0.660
-7.118 -7.437 0.323
-6.850 -7.009 0.162
-7.370 -8.074 0.706
-7.143 -7.608 0.469
-6.841 -7.005 0.169
-9.875 -10.809 0.932
-7.143 -7.608 0.469
-8.791 -9.147 0.358
-7.370 -8.074 0.706
-6.830 -7.218 0.392
-7.370 -8.074 0.706
-6.663 -6.985 0.325
-7.393 -8.094 0.704
-6.830 -7.218 0.392
-6.830 -7.218 0.392
-6.909 -7.563 0.657
-8.791 -9.147 0.358
-7.118 -7.437 0.323
-7.311 -8.142 0.835
-8.791 -9.147 0.358
-8.791 -9.147 0.358
-6.663 -6.985 0.325
-7.143 -7.608 0.468
-6.909 -7.563 0.657
-9.875 -10.809 0.932
-9.875 -10.809 0.932
-8.791 -9.147 0.358
-9.876 -10.832 0.955
-6.841 -7.005 0.169
-6.909 -7.563 0.657
-6.830 -7.218 0.392
-7.311 -8.142 0.835
-8.791 -9.147 0.358
-6.663 -6.985 0.325
-7.370 -8.074 0.706
-7.370 -8.074 0.706
-6.909 -7.563 0.657
-9.875 -10.809 0.932
-6.841 -7.005 0.169
-8.791 -9.147 0.358
-6.909 -7.563 0.657
-9.875 -10.809 0.932
-6.662 -6.986 0.328
-7.118 -7.606 0.492
-6.905 -7.560 0.659
-6.663 -6.984 0.325
-7.118 -7.437 0.322
-8.792 -9.147 0.357
-10.066 -10.832 0.766
-6.875 -7.180 0.308
-6.841 -7.005 0.169
-6.841 -7.005 0.169
-7.311 -8.141 0.834
-6.841 -7.005 0.169
-9.875 -10.809 0.932
-7.143 -7.607 0.467
-7.022 -7.250 0.232
-8.792 -9.147 0.357
-6.841 -7.005 0.169
-6.905 -7.560 0.659
-8.792 -9.147 0.357
-7.143 -7.607 0.467
-6.905 -7.560 0.659
-9.875 -10.809 0.932
-7.143 -7.607 0.467
-6.663 -6.984 0.325
-6.663 -6.984 0.325
-8.792 -9.147 0.357
-6.905 -7.560 0.659
-6.905 -7.560 0.659
-6.905 -7.560 0.659
-8.792 -9.147 0.357
-9.876 -10.832 0.955
-10.066 -10.832 0.766
-6.663 -6.984 0.325
-8.792 -9.147 0.357
-6.950 -7.583 0.636
-8.791 -9.147 0.358
-8.780 -9.147 0.369
-6.663 -6.984 0.325
-9.876 -10.832 0.955
-8.792 -9.147 0.357
-6.851 -7.009 0.162
-6.831 -7.218 0.391
-8.792 -9.147 0.357
-9.875 -10.809 0.932
-8.792 -9.147 0.357
-9.875 -10.809 0.932
-9.876 -10.832 0.955
-7.311 -8.141 0.834
-8.792 -9.147 0.357
-9.875 -10.809 0.932
-7.366 -8.071 0.707
-9.870 -10.809 0.936
-8.792 -9.147 0.357
-8.792 -9.147 0.357
-6.950 -7.583 0.636
-6.841 -7.006 0.169
-6.841 -7.005 0.169
-7.370 -8.074 0.706
-6.909 -7.563 0.658
-7.143 -7.608 0.469
-6.662 -6.986 0.328
-8.780 -9.147 0.369
-8.780 -9.147 0.369
-6.841 -7.005 0.169
-6.906 -7.561 0.659
-6.663 -6.984 0.325
-6.663 -6.984 0.325
-9.876 -10.832 0.955
-9.873 -10.833 0.959
-6.840 -7.005 0.169
-7.367 -8.073 0.709
-6.454 -7.653 1.202
-8.788 -9.148 0.362
-6.664 -6.985 0.325
-7.367 -8.073 0.709
-8.788 -9.148 0.362
-9.873 -10.833 0.959
-7.367 -8.073 0.709
-6.840 -7.005 0.169
-7.367 -8.073 0.709
-8.788 -9.148 0.362
-7.141 -7.608 0.471