-7.490 -6.841 -0.688
-7.780 -6.590 -1.195
-7.490 -6.841 -0.688
-7.836 -6.426 -1.455
-9.900 -6.405 -3.544
-7.377 -6.690 -0.679
-7.490 -6.841 -0.688
-7.490 -6.841 -0.688
-7.780 -6.590 -1.195
-9.900 -6.405 -3.544
-7.836 -6.427 -1.455
-7.780 -6.590 -1.195
-7.099 -6.566 -0.534
-7.490 -6.841 -0.688
-7.036 -6.586 -0.446
-9.867 -7.149 -2.866
-9.867 -7.149 -2.866
-7.490 -6.841 -0.688
-7.780 -6.590 -1.195
-7.232 -6.694 -0.528
-9.682 -6.592 -3.187
-7.490 -6.841 -0.688
-7.780 -6.590 -1.195
-7.780 -6.590 -1.195
-7.099 -6.566 -0.534
-7.780 -6.590 -1.195
-7.836 -6.427 -1.454
-9.900 -6.405 -3.544
-9.900 -6.405 -3.544
-9.900 -6.405 -3.544
-7.233 -6.693 -0.528
-9.867 -7.149 -2.866
-7.037 -6.586 -0.447
-7.780 -6.590 -1.195
-7.099 -6.566 -0.534
-9.900 -6.405 -3.544
-7.780 -6.590 -1.195
-7.232 -6.694 -0.528
-9.900 -6.405 -3.544
-7.377 -6.690 -0.679
-7.382 -6.607 -0.784
-7.490 -6.841 -0.688
-7.780 -6.590 -1.195
-9.900 -6.405 -3.544
-7.836 -6.427 -1.455
-5.320 -5.689 0.392
-7.035 -6.586 -0.445
-7.780 -6.591 -1.195
-7.270 -6.696 -0.561
-7.485 -6.831 -0.690
-7.035 -6.586 -0.446
-6.419 -6.307 -0.089
-7.376 -6.690 -0.679
-7.780 -6.590 -1.195
-9.816 -6.412 -3.452
-7.836 -6.426 -1.455
-7.780 -6.590 -1.195
-7.346 -6.199 -1.187
-7.232 -6.694 -0.527
-9.898 -6.405 -3.542
-7.836 -6.426 -1.455
-7.270 -6.696 -0.562
-9.898 -6.405 -3.542
-7.233 -6.693 -0.528
-7.270 -6.696 -0.562
-7.233 -6.693 -0.528
-9.898 -6.405 -3.542
-6.137 -6.311 0.198
-7.035 -6.586 -0.445
-9.898 -6.405 -3.542
-7.232 -6.694 -0.527
-6.052 -6.709 0.676
-7.836 -6.426 -1.455
-7.780 -6.590 -1.195
-7.836 -6.427 -1.454
-7.376 -6.690 -0.679
-7.233 -6.694 -0.528
-7.347 -6.199 -1.187
-7.490 -6.841 -0.688
-9.898 -6.405 -3.542
-9.898 -6.405 -3.542
-7.490 -6.841 -0.688
-7.035 -6.586 -0.446
-7.233 -6.694 -0.528
-7.836 -6.426 -1.455
-6.167 -6.263 0.118
-7.780 -6.590 -1.195
-9.816 -6.412 -3.452
-9.898 -6.405 -3.542
-7.271 -6.888 -0.395
-7.233 -6.693 -0.528
-7.377 -6.690 -0.679
-6.416 -6.313 -0.080
-6.052 -6.709 0.676
-9.816 -6.412 -3.452
-9.816 -6.412 -3.452
-7.035 -6.586 -0.445
-8.299 -6.227 -2.186
-7.836 -6.427 -1.455
-7.035 -6.586 -0.445
-7.836 -6.426 -1.455
-9.816 -6.412 -3.452
-12.140 -8.992 -3.186
-7.490 -6.841 -0.688
-5.893 -6.719 0.849
-9.866 -7.149 -2.864
-6.719 -6.714 0.012
-6.084 -6.260 0.198
-7.233 -6.693 -0.529
-7.861 -6.430 -1.473
-7.837 -6.426 -1.456
-7.837 -6.426 -1.456
-7.099 -6.566 -0.533
-6.137 -6.311 0.198
-7.233 -6.693 -0.528
-7.035 -6.586 -0.446
-9.816 -6.412 -3.452
-5.320 -5.689 0.393
-7.035 -6.586 -0.445
-7.485 -6.831 -0.689
-9.816 -6.412 -3.452
-7.860 -6.430 -1.472
-7.271 -6.419 -0.852
-7.861 -6.430 -1.473
-7.382 -6.607 -0.784
-8.155 -5.439 -2.731
-6.046 -6.259 0.236
-7.232 -6.693 -0.528
-6.045 -6.259 0.236
-6.136 -6.311 0.198
-7.836 -6.426 -1.456
-6.042 -6.257 0.237
-6.419 -6.307 -0.089
-6.400 -6.726 0.348
-9.866 -7.149 -2.864
-6.137 -6.311 0.197
-6.137 -6.311 0.197
-9.812 -6.411 -3.448
-7.231 -6.688 -0.533
-6.151 -6.306 0.177
-6.419 -6.307 -0.089
-7.035 -6.586 -0.446
-9.866 -7.149 -2.864
-7.233 -6.689 -0.534
-7.780 -6.590 -1.195
-6.145 -6.311 0.189
-5.892 -6.720 0.850
-7.836 -6.427 -1.454
-9.866 -7.149 -2.864
-9.898 -6.405 -3.542
-6.044 -6.257 0.236
-6.047 -6.259 0.235
-9.844 -9.586 -0.453
-6.146 -6.311 0.188
-7.381 -6.607 -0.783
-9.898 -6.405 -3.542
-5.731 -5.828 0.121
-7.836 -6.427 -1.454
-11.808 -8.877 -2.924
-7.836 -6.426 -1.455
-6.959 -6.600 -0.354
-7.347 -6.199 -1.187
-6.399 -6.726 0.348
-7.232 -6.694 -0.528
-6.416 -6.313 -0.080
-7.099 -6.565 -0.534
-7.233 -6.693 -0.528
-6.400 -6.726 0.348
-6.400 -6.726 0.348
-7.099 -6.565 -0.534
-10.558 -9.678 -0.970
-7.035 -6.586 -0.446
-7.836 -6.427 -1.455
-7.323 -6.603 -0.734
-9.898 -6.405 -3.542
-11.808 -8.877 -2.924
-7.232 -6.694 -0.528
-9.898 -6.405 -3.542
-9.898 -6.405 -3.542
-6.146 -6.311 0.188
-6.146 -6.311 0.188
-6.400 -6.726 0.348
-10.558 -9.678 -0.970
-7.347 -6.199 -1.187
-7.034 -6.586 -0.445
-7.034 -6.586 -0.445
-7.860 -6.430 -1.472
-7.034 -6.586 -0.445
-6.151 -6.306 0.178
-11.310 -9.327 -2.000
-9.816 -6.412 -3.452
-7.346 -6.199 -1.187
-9.816 -6.412 -3.452
-9.816 -6.412 -3.452
-6.136 -6.312 0.198
-7.381 -6.607 -0.783
-6.043 -6.257 0.236
-6.399 -6.726 0.348
-9.816 -6.412 -3.452
-7.836 -6.427 -1.455
-6.043 -6.257 0.236
-5.291 -5.686 0.419
-9.816 -6.412 -3.452
-9.816 -6.412 -3.452
-9.866 -7.149 -2.864
-9.812 -6.411 -3.448
-9.866 -7.149 -2.864
-5.938 -6.717 0.802
-10.558 -9.678 -0.970
-9.898 -6.405 -3.542
-7.035 -6.586 -0.445
-6.043 -6.257 0.236
-6.418 -6.312 -0.083
-8.925 -7.205 -1.842
-6.146 -6.311 0.188
-5.665 -6.635 0.992
-12.064 -8.316 -3.742
-6.400 -6.726 0.348
-7.780 -6.591 -1.195
-6.136 -6.312 0.199
-7.034 -6.586 -0.445
-6.045 -6.259 0.236
-6.369 -6.258 -0.089
-7.294 -6.699 -0.582
-5.713 -5.829 0.138
-6.137 -6.311 0.198
-6.137 -6.311 0.198
-9.817 -6.412 -3.453
-6.146 -6.307 0.184
-9.867 -7.149 -2.866
-6.138 -6.311 0.196
-9.867 -7.149 -2.866
-12.105 -9.003 -3.141
-7.099 -6.565 -0.534
-7.861 -6.430 -1.472
-8.298 -6.228 -2.184
-7.861 -6.430 -1.472
-7.347 -6.199 -1.187
-7.828 -6.457 -1.410
-7.347 -6.199 -1.187
-7.035 -6.586 -0.446
-5.686 -5.829 0.166
-6.085 -6.260 0.197
-7.347 -6.199 -1.187
-7.347 -6.199 -1.187
-7.836 -6.426 -1.455
-9.866 -7.149 -2.864
-7.036 -6.586 -0.447
-7.036 -6.586 -0.447
-5.938 -6.717 0.802
-9.866 -7.149 -2.864
-7.348 -6.199 -1.189
-6.137 -6.311 0.197
-6.406 -6.259 -0.124
-6.137 -6.311 0.198
-7.861 -6.430 -1.472
-5.900 -5.864 -0.014
-7.490 -6.841 -0.688
-8.298 -6.229 -2.183
-5.893 -6.719 0.849
-6.045 -6.257 0.234
-7.347 -6.199 -1.188
-6.152 -6.305 0.177
-7.294 -6.699 -0.582
-12.106 -9.003 -3.141
-6.048 -6.259 0.234
-6.137 -6.311 0.197
-6.419 -6.307 -0.089
-7.347 -6.199 -1.187
-6.751 -6.050 -0.684
-6.083 -6.260 0.199
-6.136 -6.312 0.198
-6.136 -6.312 0.198
-7.232 -6.694 -0.528
-5.097 -5.196 0.122
-6.437 -6.260 -0.155
-7.035 -6.586 -0.446
-7.233 -6.694 -0.528
-6.751 -6.050 -0.684
-7.035 -6.586 -0.446
-7.035 -6.586 -0.446
-7.839 -6.433 -1.449
-6.146 -6.311 0.188
-7.035 -6.586 -0.446
-7.035 -6.586 -0.446
-6.134 -6.262 0.150
-6.084 -6.260 0.198
-6.207 -6.314 0.130
-7.836 -6.426 -1.455
-8.297 -6.228 -2.183
-7.109 -5.925 -1.296
-8.297 -6.228 -2.183
-6.146 -6.311 0.188
-7.861 -6.430 -1.472
-12.063 -8.316 -3.742
-6.393 -6.257 -0.113
-6.419 -6.307 -0.089
-7.836 -6.426 -1.455
-6.152 -6.305 0.177
-6.393 -6.257 -0.113
-6.152 -6.305 0.177
-6.355 -6.322 -0.040
-7.347 -6.199 -1.188
-7.347 -6.199 -1.188
-5.893 -6.719 0.849
-7.122 -6.728 -0.380
-7.347 -6.199 -1.188
-7.839 -6.433 -1.449
-7.035 -6.586 -0.446
-6.083 -6.260 0.199
-7.836 -6.426 -1.455
-8.297 -6.228 -2.183
-9.898 -6.405 -3.542
-6.086 -6.260 0.197
-6.047 -6.259 0.235
-5.937 -6.718 0.803
-6.047 -6.259 0.235
-6.145 -6.311 0.189
-6.207 -6.314 0.131
-9.866 -7.149 -2.864
-5.714 -5.828 0.138
-5.901 -5.864 -0.015
-5.665 -6.634 0.991
-6.152 -6.305 0.176
-6.146 -6.310 0.187
-7.382 -6.607 -0.785
-8.300 -6.228 -2.186
-6.047 -6.258 0.234
-7.036 -6.586 -0.447
-7.233 -6.693 -0.529
-6.084 -6.260 0.198
-6.521 -6.902 0.401
-7.347 -6.199 -1.188
-6.153 -6.305 0.176
-6.393 -6.257 -0.113
-5.665 -6.635 0.992
-6.082 -6.323 0.263
-6.152 -6.305 0.176
-7.347 -6.199 -1.188
-6.406 -6.259 -0.124
-12.105 -9.003 -3.141
-7.382 -6.607 -0.784
-6.751 -6.050 -0.684
-5.893 -6.720 0.849
-7.035 -6.586 -0.446
-7.836 -6.426 -1.455
-6.406 -6.259 -0.124
-6.137 -6.311 0.198
-6.089 -6.322 0.255
-5.686 -5.828 0.166
-6.146 -6.311 0.188
-7.382 -6.607 -0.784
-6.146 -6.311 0.188
-6.146 -6.311 0.188
-6.146 -6.311 0.188
-6.083 -6.260 0.199
-6.146 -6.311 0.188
-6.046 -6.259 0.235
-7.836 -6.426 -1.455
-9.898 -6.405 -3.542
-9.866 -7.149 -2.864
-9.812 -6.411 -3.449
-6.119 -6.260 0.164
-7.381 -6.607 -0.783
-6.219 -6.311 0.116
-6.046 -6.259 0.235
-7.346 -6.199 -1.187
-6.145 -6.311 0.189
-11.808 -8.877 -2.924
-5.414 -5.275 -0.117
-9.866 -7.149 -2.864
-6.043 -6.256 0.236
-9.866 -7.149 -2.864
-7.837 -6.426 -1.456
-9.866 -7.149 -2.864
-7.837 -6.426 -1.456
-7.324 -6.602 -0.735
-6.137 -6.311 0.197
-9.866 -7.149 -2.864
-6.146 -6.310 0.187
-9.898 -6.405 -3.542
-9.866 -7.149 -2.864
-9.866 -7.149 -2.864
-7.109 -5.925 -1.296
-7.837 -6.426 -1.456
-5.098 -5.196 0.121
-6.137 -6.311 0.197
-6.090 -6.322 0.254
-6.048 -6.259 0.233
-9.866 -7.149 -2.864
-9.866 -7.149 -2.864
-6.137 -6.311 0.197
-6.215 -6.308 0.116
-9.816 -6.412 -3.452
-8.295 -6.235 -2.174
-7.836 -6.426 -1.455
-6.219 -6.311 0.116
-6.145 -6.311 0.189
-6.327 -5.887 -0.433
-6.419 -6.307 -0.089
-9.866 -7.149 -2.864
-6.215 -6.308 0.116
-6.047 -6.258 0.234
-7.099 -6.565 -0.534
-6.137 -6.311 0.198
-6.043 -6.257 0.236
-9.866 -7.149 -2.864
-6.137 -6.311 0.197
-9.407 -6.956 -2.692
-6.437 -6.260 -0.155
-6.137 -6.311 0.198
-8.745 -6.602 -2.196
-5.716 -6.034 0.319
-7.035 -6.586 -0.446
-6.044 -6.257 0.235
-6.152 -6.306 0.177
-7.347 -6.199 -1.187
-9.898 -6.405 -3.542
-6.960 -6.600 -0.355
-6.146 -6.311 0.188
-6.167 -6.263 0.118
-5.767 -6.655 0.911
-6.959 -6.600 -0.355
-7.259 -6.695 -0.552
-8.299 -6.227 -2.187
-6.146 -6.311 0.188
-7.035 -6.586 -0.445
-9.866 -7.149 -2.865
-9.336 -7.212 -2.139
-6.043 -6.256 0.235
-7.036 -6.586 -0.447
-7.327 -6.211 -1.149
-9.898 -6.405 -3.542
-9.866 -7.149 -2.864
-6.208 -6.314 0.129
-7.837 -6.426 -1.456
-6.084 -6.260 0.198
-11.809 -8.877 -2.925
-6.152 -6.305 0.176
-8.929 -7.204 -1.847
-5.901 -5.864 -0.014
-6.137 -6.311 0.197
-7.837 -6.426 -1.456
-6.215 -6.308 0.116
-6.044 -6.257 0.235
-6.672 -6.050 -0.605
-7.260 -6.695 -0.553
-7.122 -6.728 -0.381
-6.047 -6.259 0.234
-9.866 -7.149 -2.864
-6.215 -6.308 0.116
-6.437 -6.260 -0.155
-8.294 -6.236 -2.170
-9.399 -7.200 -2.335
-6.416 -6.313 -0.080
-9.399 -7.200 -2.335
-6.437 -6.260 -0.155
-7.862 -6.429 -1.474
-8.608 -9.076 0.489
-7.348 -6.199 -1.189
-12.127 -9.008 -3.164
-12.105 -9.003 -3.141
-6.084 -6.260 0.198
-5.900 -5.864 -0.014
-7.836 -6.426 -1.455
-6.167 -6.263 0.118
-8.642 -7.820 -0.804
-9.866 -7.149 -2.864
-8.297 -6.236 -2.174
-5.108 -5.190 0.105
-7.837 -6.426 -1.456
-6.961 -6.599 -0.357
-6.153 -6.305 0.175
-8.297 -6.236 -2.174
-6.147 -6.310 0.187
-6.147 -6.310 0.187
-7.347 -6.199 -1.188
-6.208 -6.314 0.129
-9.317 -6.835 -2.575
-9.866 -7.149 -2.864
-9.898 -6.405 -3.542
-7.035 -6.586 -0.445
-6.959 -6.600 -0.355
-6.151 -6.306 0.177
-7.122 -6.728 -0.380
-7.035 -6.586 -0.445
-5.713 -5.829 0.139
-6.136 -6.312 0.198
-6.046 -6.259 0.235
-6.393 -6.257 -0.113
-7.836 -6.426 -1.455
-7.347 -6.199 -1.187
-7.035 -6.586 -0.446
-6.219 -6.311 0.116
-10.855 -8.875 -2.324
-8.744 -6.601 -2.195
-9.866 -7.149 -2.864
-6.137 -6.311 0.197
-5.852 -5.873 0.043
-8.297 -6.227 -2.184
-8.297 -6.227 -2.184
-6.043 -6.256 0.236
-10.854 -8.876 -2.323
-6.146 -6.310 0.187
-8.297 -6.236 -2.174
-5.852 -5.873 0.043
-6.048 -6.259 0.233
-9.402 -7.200 -2.339
-6.137 -6.311 0.197
-6.215 -6.308 0.116
-6.137 -6.311 0.197
-7.382 -6.607 -0.785
-7.252 -6.693 -0.548
-6.044 -6.257 0.235
-5.893 -6.719 0.849
-7.837 -6.426 -1.456
-7.357 -6.207 -1.187
-7.260 -6.695 -0.553
-6.146 -6.310 0.187
-9.402 -7.200 -2.339
-6.046 -6.258 0.234
-5.852 -5.872 0.043
-7.348 -6.199 -1.189
-11.809 -8.877 -2.925
-5.680 -5.835 0.178
-6.137 -6.311 0.197
-6.044 -6.257 0.235
-6.146 -6.310 0.187
-5.901 -5.864 -0.014
-6.215 -6.308 0.116
-9.402 -7.200 -2.339
-6.220 -6.311 0.115
-6.135 -6.261 0.149
-7.036 -6.586 -0.447
-6.152 -6.305 0.176
-6.137 -6.311 0.197
-6.208 -6.314 0.129
-6.146 -6.310 0.187
-5.852 -5.873 0.043
-9.402 -7.200 -2.339
-5.779 -5.754 -0.002
-5.680 -5.835 0.178
-6.083 -6.322 0.262
-6.048 -6.259 0.233
-7.109 -5.925 -1.296
-9.898 -6.405 -3.542
-6.219 -6.311 0.116
-9.601 -9.599 0.009
-9.336 -7.210 -2.140
-7.035 -6.586 -0.445
-6.207 -6.314 0.130
-10.610 -9.359 -1.245
-9.397 -7.200 -2.334
-6.354 -6.322 -0.040
-5.138 -5.197 0.082
-6.214 -6.308 0.117
-12.131 -9.003 -3.173
-7.347 -6.199 -1.187
-9.580 -6.997 -2.596
-5.778 -5.754 -0.002
-6.084 -6.260 0.198
-7.233 -6.693 -0.529
-6.399 -6.726 0.348
-9.866 -7.149 -2.864
-12.139 -8.993 -3.186
-8.747 -9.050 0.323
-12.139 -8.993 -3.186
-12.139 -8.993 -3.186
-12.139 -8.993 -3.186
-12.139 -8.993 -3.186
-12.063 -8.316 -3.742
-8.747 -9.050 0.323
-12.139 -8.993 -3.186
-10.799 -8.887 -2.255
-12.139 -8.993 -3.186
-10.799 -8.886 -2.255
-8.747 -9.050 0.323
-9.600 -9.599 0.009
-12.139 -8.993 -3.186
-9.652 -9.463 -0.168
-9.600 -9.599 0.009
-10.533 -9.361 -1.169
-10.871 -8.228 -2.646
-10.799 -8.886 -2.255
-9.652 -9.463 -0.168
-12.063 -8.316 -3.742
-12.063 -8.316 -3.742
-12.139 -8.993 -3.186
-9.524 -8.981 -0.568
-9.652 -9.463 -0.168
-12.139 -8.993 -3.186
-11.752 -7.763 -3.980
-12.139 -8.993 -3.186
-12.139 -8.993 -3.186
-8.747 -9.050 0.323
-9.652 -9.463 -0.168
-12.063 -8.316 -3.742
-10.799 -8.887 -2.255
-12.139 -8.993 -3.186
-12.139 -8.993 -3.186
-9.652 -9.463 -0.168
-9.504 -9.034 -0.486
-12.139 -8.993 -3.186
-12.139 -8.993 -3.186
-10.870 -8.228 -2.645
-12.063 -8.316 -3.742
-9.652 -9.463 -0.168
-12.063 -8.316 -3.742
-9.504 -9.034 -0.486
-9.652 -9.463 -0.169
-12.139 -8.993 -3.186
-12.139 -8.993 -3.186
-9.652 -9.463 -0.168
-12.063 -8.316 -3.742
-8.747 -9.050 0.323
-12.139 -8.993 -3.186
-10.533 -9.361 -1.169
-12.139 -8.993 -3.186
-9.504 -9.034 -0.486
-12.139 -8.993 -3.186
-12.139 -8.993 -3.186
-9.504 -9.034 -0.486
-10.854 -8.876 -2.323
-12.063 -8.316 -3.742
-10.799 -8.887 -2.255
-12.139 -8.993 -3.186
-10.799 -8.886 -2.255
-10.799 -8.886 -2.255
-12.063 -8.316 -3.742
-12.139 -8.993 -3.186
-11.236 -7.276 -3.973
-12.139 -8.993 -3.186
-8.552 -9.470 0.940
-10.799 -8.887 -2.255
-12.139 -8.993 -3.186
-12.139 -8.993 -3.186
-9.816 -7.878 -1.987
-12.139 -8.993 -3.186
-10.799 -8.886 -2.255
-12.063 -8.316 -3.742
-8.922 -6.877 -2.150
-12.139 -8.993 -3.186
-10.799 -8.887 -2.255
-10.854 -8.876 -2.323
-8.921 -6.877 -2.149
-8.747 -9.050 0.323
-12.139 -8.993 -3.186
-12.139 -8.993 -3.186
-10.854 -8.876 -2.323
-9.652 -9.462 -0.169
-12.140 -8.315 -3.819
-11.752 -7.763 -3.980
-10.533 -9.361 -1.169
-10.799 -8.887 -2.255
-12.139 -8.993 -3.186
-9.504 -9.034 -0.486
-12.139 -8.993 -3.186
-12.139 -8.993 -3.186
-10.810 -8.231 -2.582
-12.139 -8.993 -3.186
-11.752 -7.763 -3.980
-12.063 -8.316 -3.742
-10.727 -8.983 -1.773
-12.139 -8.993 -3.186
-12.139 -8.993 -3.186
-10.870 -8.228 -2.645
-12.063 -8.316 -3.742
-12.139 -8.993 -3.186
-10.490 -9.702 -0.869
-12.138 -8.315 -3.817
-8.841 -9.082 0.262
-9.649 -9.463 -0.165
-10.795 -8.888 -2.251
-12.132 -8.995 -3.176
-12.028 -8.994 -3.069
-10.390 -9.377 -1.009
-8.212 -7.747 -0.442
-9.651 -9.463 -0.166
-12.028 -8.994 -3.069
-9.598 -9.600 0.012
-9.650 -9.462 -0.167
-10.796 -8.888 -2.251
-12.028 -8.994 -3.069
-12.060 -8.316 -3.739
-12.062 -8.316 -3.741
-12.143 -8.991 -3.191
-12.143 -8.991 -3.191
-12.143 -8.991 -3.191
-10.807 -8.231 -2.579
-10.792 -8.887 -2.247
-12.143 -8.991 -3.191
-12.143 -8.991 -3.191
-12.143 -8.991 -3.191
-9.652 -9.468 -0.164
-12.062 -8.316 -3.741
-12.062 -8.316 -3.741
-12.062 -8.316 -3.741
-10.704 -7.645 -3.217
-9.652 -9.468 -0.163
-9.505 -9.035 -0.486
-9.652 -9.468 -0.163
-9.400 -9.955 0.544
-8.746 -9.050 0.326
-10.537 -9.360 -1.172
-10.792 -8.887 -2.247
-9.524 -8.981 -0.568
-12.062 -8.316 -3.741
-9.596 -9.600 0.014
-8.231 -7.639 -0.570
-9.505 -9.035 -0.486
-12.143 -8.991 -3.191
-11.751 -7.764 -3.979
-12.139 -8.315 -3.819
-10.541 -9.672 -0.962
-8.838 -9.083 0.266
-11.989 -9.005 -3.019
-12.056 -8.316 -3.734
-11.989 -9.005 -3.019
-12.026 -8.995 -3.067
-12.026 -8.995 -3.067
-12.133 -8.315 -3.812
-9.647 -9.468 -0.159
-10.803 -8.232 -2.575
-12.056 -8.316 -3.734
-9.518 -8.985 -0.558
-12.056 -8.316 -3.734
-10.864 -8.229 -2.639
-12.134 -8.315 -3.814
-9.498 -9.037 -0.478
-10.786 -8.889 -2.240
-10.786 -8.889 -2.240
-10.786 -8.889 -2.240
-10.487 -9.701 -0.866
-11.989 -9.005 -3.019
-8.637 -8.101 -0.522
-10.786 -8.889 -2.240
-12.056 -8.316 -3.734
-10.786 -8.889 -2.240
-8.870 -6.890 -2.082
-10.786 -8.889 -2.240
-11.744 -7.764 -3.972
-10.786 -8.889 -2.240
-12.130 -8.995 -3.174
-12.133 -8.315 -3.812
-12.133 -8.315 -3.812
-9.647 -9.469 -0.158
-11.744 -7.764 -3.972
-9.647 -9.468 -0.159
-12.134 -8.315 -3.813
-8.870 -6.890 -2.082
-10.864 -8.229 -2.638
-9.402 -9.956 0.544
-10.864 -8.229 -2.638
-10.864 -8.229 -2.638
-10.786 -8.889 -2.240
-9.651 -9.466 -0.165
-12.130 -8.995 -3.174
-12.026 -8.995 -3.067
-10.803 -8.232 -2.575
-12.134 -8.315 -3.813
-10.864 -8.229 -2.639
-10.537 -9.677 -0.952
-10.786 -8.889 -2.240
-8.741 -9.054 0.333
-9.498 -9.037 -0.478
-10.519 -9.364 -1.152
-8.407 -7.715 -0.671
-12.135 -8.315 -3.814
-9.647 -9.468 -0.158
-10.803 -8.232 -2.575
-9.647 -9.468 -0.159
-10.803 -8.232 -2.575
-11.744 -7.764 -3.972
-9.797 -7.883 -1.962
-12.056 -8.316 -3.734
-10.519 -9.364 -1.152
-12.130 -8.995 -3.174
-10.786 -8.889 -2.240
-12.056 -8.316 -3.734
-9.647 -9.468 -0.159
-10.864 -8.229 -2.639
-12.026 -8.995 -3.067
-10.700 -8.311 -2.429
-10.700 -8.311 -2.429
-10.786 -8.889 -2.240
-8.870 -6.890 -2.082
-11.229 -7.277 -3.965
-10.786 -8.889 -2.240
-9.647 -9.468 -0.158
-10.519 -9.364 -1.152
-12.130 -8.995 -3.174
-9.797 -7.883 -1.962
-10.786 -8.889 -2.240
-10.786 -8.889 -2.240
-12.056 -8.316 -3.734
-10.387 -9.377 -1.006
-10.640 -8.313 -2.366
-11.229 -7.277 -3.966
-11.745 -7.764 -3.973
-10.787 -8.889 -2.241
-11.229 -7.277 -3.966
-10.787 -8.889 -2.241
-12.130 -8.995 -3.174
-12.057 -8.316 -3.735
-10.787 -8.889 -2.241
-8.022 -7.526 -0.476
-10.842 -8.878 -2.308
-12.057 -8.316 -3.735
-12.057 -8.316 -3.735
-12.057 -8.316 -3.735
-9.648 -9.468 -0.159
-12.026 -8.995 -3.067
-12.130 -8.995 -3.174
-12.026 -8.995 -3.067
-12.056 -8.316 -3.734
-8.870 -6.890 -2.082
-12.056 -8.316 -3.734
-10.786 -8.889 -2.240
-12.130 -8.995 -3.174
-9.498 -9.037 -0.478
-12.130 -8.995 -3.174
-9.647 -9.468 -0.159
-12.056 -8.316 -3.734
-12.130 -8.995 -3.174
-12.130 -8.995 -3.174
-12.130 -8.995 -3.174
-10.843 -8.878 -2.309
-12.056 -8.316 -3.734
-9.647 -9.468 -0.158
-10.700 -8.311 -2.430
-12.056 -8.316 -3.734
-12.056 -8.316 -3.734
-10.842 -8.878 -2.308
-8.917 -6.878 -2.143
-9.647 -9.468 -0.158
-12.056 -8.316 -3.734
-11.744 -7.764 -3.972
-8.400 -7.714 -0.664
-12.056 -8.316 -3.734
-12.026 -8.995 -3.067
-8.231 -7.639 -0.570
-12.130 -8.995 -3.174
-11.744 -7.764 -3.972
-12.056 -8.316 -3.734
-10.786 -8.889 -2.240
-12.130 -8.995 -3.174
-10.786 -8.889 -2.240
-12.056 -8.316 -3.734
-9.647 -9.468 -0.158
-10.487 -9.701 -0.866
-10.700 -8.311 -2.429
-12.055 -8.316 -3.734
-8.741 -9.054 0.334
-12.129 -8.995 -3.173
-8.838 -9.083 0.266
-11.599 -7.690 -3.900
-9.647 -9.468 -0.158
-10.786 -8.889 -2.239
-12.054 -8.316 -3.733
-9.796 -7.883 -1.961
-12.054 -8.316 -3.733
-8.745 -9.056 0.332
-12.130 -8.996 -3.173
-9.647 -9.468 -0.158
-8.870 -6.890 -2.082
-10.803 -8.232 -2.574
-11.228 -7.277 -3.965
-10.786 -8.889 -2.239
-12.054 -8.316 -3.733
-10.786 -8.889 -2.239
-11.989 -9.005 -3.019
-10.786 -8.889 -2.240
-9.592 -9.601 0.020
-12.056 -8.316 -3.734
-10.786 -8.889 -2.240
-10.487 -9.701 -0.866
-10.786 -8.889 -2.239
-9.647 -9.468 -0.158
-9.592 -9.601 0.020
-11.744 -7.764 -3.972
-11.744 -7.764 -3.972
-10.537 -9.677 -0.951
-9.797 -7.883 -1.962
-10.786 -8.889 -2.240
-12.129 -8.995 -3.173
-10.786 -8.889 -2.240
-12.055 -8.316 -3.734
-11.283 -7.278 -4.019
-11.744 -7.764 -3.972
-12.055 -8.316 -3.734
-9.420 -9.962 0.532
-12.132 -8.315 -3.811
-10.537 -9.677 -0.951
-8.242 -7.640 -0.580
-12.129 -8.995 -3.173
-10.786 -8.889 -2.239
-11.744 -7.764 -3.972
-10.537 -9.678 -0.951
-12.129 -8.995 -3.173
-9.647 -9.468 -0.159
-10.537 -9.677 -0.951
-12.055 -8.316 -3.734
-8.217 -7.699 -0.498
-11.305 -9.328 -1.994
-11.989 -9.005 -3.019
-12.056 -8.316 -3.734
-12.056 -8.316 -3.734
-9.402 -9.956 0.544
-12.056 -8.316 -3.734
-12.056 -8.316 -3.734
-12.130 -8.995 -3.174
-9.596 -9.600 0.014
-10.866 -8.228 -2.642
-12.143 -8.991 -3.191
-10.792 -8.887 -2.247
-10.866 -8.228 -2.642
-10.792 -8.887 -2.247
-12.062 -8.316 -3.741
-12.062 -8.316 -3.741
-10.792 -8.887 -2.247
-12.143 -8.991 -3.191
-10.703 -8.311 -2.433
-12.143 -8.991 -3.191
-10.792 -8.887 -2.247
-11.751 -7.764 -3.979
-9.652 -9.468 -0.163
-12.062 -8.316 -3.741
-10.792 -8.887 -2.247
-10.792 -8.887 -2.247
-10.807 -8.231 -2.579
-8.873 -6.889 -2.086
-9.596 -9.600 0.014
-11.608 -7.689 -3.910
-10.541 -9.673 -0.961
-11.989 -9.005 -3.019
-10.803 -8.232 -2.575
-10.537 -9.677 -0.952
-9.592 -9.601 0.020
-9.402 -9.956 0.544
-9.647 -9.468 -0.159
-10.700 -8.311 -2.430
-12.130 -8.995 -3.174
-12.130 -8.995 -3.174
-12.130 -8.995 -3.174
-11.989 -9.005 -3.019
-12.056 -8.316 -3.734
-7.986 -7.526 -0.441
-11.744 -7.764 -3.972
-10.786 -8.889 -2.240
-12.056 -8.316 -3.734
-9.647 -9.468 -0.159
-10.803 -8.232 -2.575
-10.786 -8.889 -2.240
-12.130 -8.995 -3.174
-9.518 -8.985 -0.558
-12.056 -8.316 -3.734
-8.400 -7.714 -0.664
-10.786 -8.889 -2.240
-10.786 -8.889 -2.240
-10.786 -8.889 -2.240
-11.989 -9.005 -3.019
-10.786 -8.889 -2.240
-11.537 -7.687 -3.840
-9.420 -9.962 0.532
-11.305 -9.328 -1.994
-10.786 -8.889 -2.239
-9.592 -9.601 0.020
-12.055 -8.316 -3.734
-12.055 -8.316 -3.734
-9.592 -9.601 0.020
-10.803 -8.232 -2.574
-9.647 -9.468 -0.158
-9.647 -9.468 -0.158
-9.647 -9.468 -0.158
-12.129 -8.995 -3.173
-10.786 -8.889 -2.239
-10.518 -9.364 -1.151
-9.647 -9.468 -0.158
-10.639 -8.313 -2.366
-9.402 -9.956 0.544
-9.647 -9.468 -0.158
-10.786 -8.889 -2.239
-9.647 -9.469 -0.158
-9.647 -9.468 -0.159
-12.129 -8.995 -3.173
-9.402 -9.956 0.544
-10.786 -8.889 -2.239
-12.129 -8.995 -3.173
-10.786 -8.889 -2.239
-8.307 -7.674 -0.613
-12.055 -8.316 -3.734
-11.603 -7.689 -3.905
-12.129 -8.995 -3.173
-12.055 -8.316 -3.734
-12.129 -8.995 -3.173
-12.055 -8.316 -3.734
-8.741 -9.054 0.334
-10.699 -8.311 -2.428
-11.744 -7.764 -3.972
-12.055 -8.316 -3.734
-9.402 -9.956 0.544
-10.786 -8.889 -2.239
-12.055 -8.316 -3.734
-12.134 -8.316 -3.813
-12.055 -8.316 -3.734
-10.786 -8.889 -2.239
-12.129 -8.995 -3.173
-11.744 -7.764 -3.972
-10.700 -8.311 -2.430
-11.744 -7.764 -3.972
-8.741 -9.054 0.334
-12.129 -8.995 -3.173
-9.647 -9.468 -0.158
-10.786 -8.889 -2.239
-10.700 -8.311 -2.429
-12.055 -8.316 -3.734
-12.129 -8.995 -3.173
-11.744 -7.764 -3.972
-11.744 -7.764 -3.972
-11.305 -9.328 -1.994
-12.129 -8.995 -3.173
-8.242 -7.640 -0.580
-12.055 -8.316 -3.734
-9.576 -9.926 0.371
-10.786 -8.889 -2.239
-10.786 -8.889 -2.239
-10.786 -8.889 -2.239
-10.803 -8.232 -2.574
-10.537 -9.677 -0.951
-9.647 -9.468 -0.159
-12.129 -8.995 -3.173
-9.592 -9.601 0.020
-10.700 -8.311 -2.429
-10.786 -8.889 -2.239
-12.095 -9.005 -3.127
-10.380 -9.381 -0.996
-11.604 -7.689 -3.906
-8.738 -9.052 0.334
-10.787 -8.889 -2.241
-8.738 -9.052 0.334
-12.132 -8.316 -3.811
-10.787 -8.889 -2.241
-11.537 -7.687 -3.841
-9.593 -9.601 0.019
-10.787 -8.889 -2.241
-10.523 -9.364 -1.155
-8.738 -9.052 0.334
-10.787 -8.889 -2.241
-10.787 -8.889 -2.241
-10.701 -8.311 -2.430
-10.787 -8.889 -2.241
-8.305 -7.674 -0.611
-12.135 -8.315 -3.814
-12.095 -9.005 -3.128
-9.500 -9.037 -0.478
-10.701 -8.311 -2.430
-10.522 -9.364 -1.155
-11.745 -7.764 -3.973
-11.745 -7.764 -3.973
-11.745 -7.764 -3.973
-8.917 -6.878 -2.144
-8.738 -9.052 0.334
-12.129 -8.995 -3.174
-10.518 -9.368 -1.146
-10.787 -8.889 -2.241
-10.766 -8.899 -2.207
-11.989 -9.005 -3.019
-10.786 -8.889 -2.240
-12.134 -8.315 -3.813
-10.639 -8.313 -2.366
-9.647 -9.469 -0.158
-12.095 -9.005 -3.128
-12.130 -8.995 -3.174
-8.231 -7.639 -0.570
-10.537 -9.677 -0.952
-10.786 -8.889 -2.240
-11.283 -7.278 -4.019
-10.537 -9.677 -0.952
-10.786 -8.889 -2.240
-10.553 -9.681 -0.961
-9.498 -9.037 -0.477
-12.055 -8.316 -3.734
-12.134 -8.315 -3.813
-10.803 -8.232 -2.575
-11.989 -9.005 -3.019
-9.647 -9.468 -0.159
-10.729 -8.870 -2.185
-9.075 -6.858 -2.225
-9.598 -9.600 0.012
-9.521 -8.984 -0.562
-12.098 -9.005 -3.131
-12.138 -8.315 -3.817
-10.540 -9.678 -0.954
-8.744 -9.053 0.330
-12.061 -8.316 -3.740
-9.501 -9.036 -0.482
-8.780 -9.061 0.301
-10.797 -8.887 -2.253
-10.797 -8.887 -2.253
-11.992 -9.005 -3.022
-10.556 -9.682 -0.964
-10.556 -9.682 -0.964
-12.098 -9.005 -3.131
-12.098 -9.005 -3.131
-12.061 -8.316 -3.740
-12.098 -9.005 -3.131
-12.098 -9.005 -3.131
-9.527 -9.006 -0.543
-11.748 -7.763 -3.977
-9.521 -8.984 -0.562
-10.797 -8.887 -2.253
-10.789 -8.234 -2.558
-9.650 -9.463 -0.166
-10.853 -8.876 -2.322
-10.853 -8.876 -2.322
-9.612 -9.602 -0.001
-9.788 -7.890 -1.947
-11.992 -9.005 -3.022
-10.517 -9.368 -1.146
-12.061 -8.316 -3.740
-12.009 -8.317 -3.686
-11.992 -9.005 -3.022
-11.992 -9.005 -3.022
-8.315 -7.674 -0.620
-10.776 -8.897 -2.220
-10.707 -8.311 -2.436
-12.138 -8.315 -3.818
-10.707 -8.311 -2.436
-8.233 -7.639 -0.572
-12.138 -8.315 -3.818
-8.451 -8.027 -0.403
-12.138 -8.315 -3.818
-12.138 -8.315 -3.818
-8.922 -6.877 -2.149
-7.999 -7.201 -0.784
-10.707 -8.311 -2.436
-10.707 -8.311 -2.436
-12.138 -8.315 -3.818
-10.700 -8.311 -2.429
-10.700 -8.311 -2.429
-10.700 -8.311 -2.429
-7.868 -7.188 -0.663
-8.206 -7.699 -0.487
-12.127 -8.317 -3.804
-7.998 -7.201 -0.782
-11.280 -7.278 -4.015
-8.916 -6.879 -2.142
-10.700 -8.311 -2.429
-12.127 -8.317 -3.804
-10.700 -8.311 -2.429
-10.700 -8.311 -2.429
-11.280 -7.278 -4.015
-12.127 -8.317 -3.804
-12.127 -8.317 -3.804
-10.700 -8.311 -2.429
-10.700 -8.311 -2.429
-12.127 -8.317 -3.804
-7.998 -7.201 -0.782
-8.206 -7.699 -0.487
-8.916 -6.879 -2.142
-10.700 -8.311 -2.429
-7.868 -7.188 -0.663
-10.700 -8.311 -2.429
-12.127 -8.317 -3.804
-8.405 -7.715 -0.668
-8.405 -7.715 -0.668
-12.127 -8.317 -3.804
-12.127 -8.317 -3.804
-11.598 -7.691 -3.898
-8.206 -7.699 -0.487
-10.700 -8.311 -2.429
-10.700 -8.311 -2.429
-10.700 -8.311 -2.429
-7.998 -7.201 -0.782
-10.700 -8.311 -2.429
-7.987 -7.526 -0.442
-7.998 -7.201 -0.782
-11.598 -7.691 -3.898
-11.598 -7.691 -3.898
-12.127 -8.317 -3.804
-10.700 -8.311 -2.429
-8.206 -7.699 -0.487
-7.868 -7.188 -0.663
-10.700 -8.311 -2.429
-7.868 -7.188 -0.663
-10.700 -8.311 -2.429
-7.998 -7.201 -0.782
-11.804 -7.766 -4.030
-7.868 -7.188 -0.663
-11.280 -7.278 -4.015
-8.916 -6.879 -2.142
-11.105 -8.285 -2.810
-11.598 -7.691 -3.898
-8.449 -8.028 -0.401
-7.998 -7.201 -0.782
-8.916 -6.879 -2.142
-12.127 -8.317 -3.804
-10.700 -8.311 -2.429
-8.916 -6.879 -2.142
-7.868 -7.188 -0.663
-12.127 -8.317 -3.804
-12.127 -8.317 -3.804
-12.127 -8.317 -3.804
-12.127 -8.317 -3.804
-10.700 -8.311 -2.429
-7.998 -7.201 -0.782
-11.280 -7.278 -4.015
-11.598 -7.691 -3.898
-7.998 -7.201 -0.782
-10.700 -8.311 -2.429
-12.127 -8.317 -3.804
-10.700 -8.311 -2.429
-8.405 -7.715 -0.668
-8.304 -7.674 -0.609
-7.987 -7.526 -0.442
-10.700 -8.311 -2.429
-7.998 -7.201 -0.782
-9.781 -6.377 -3.393
-11.280 -7.278 -4.015
-11.804 -7.766 -4.030
-10.700 -8.311 -2.429
-7.998 -7.201 -0.782
-7.987 -7.526 -0.442
-11.280 -7.278 -4.015
-12.127 -8.317 -3.804
-10.700 -8.311 -2.429
-7.998 -7.201 -0.782
-11.804 -7.766 -4.030
-11.105 -8.285 -2.810
-7.868 -7.188 -0.663
-8.449 -8.028 -0.401
-12.127 -8.317 -3.804
-11.280 -7.278 -4.015
-8.916 -6.879 -2.142
-12.127 -8.317 -3.804
-8.449 -8.028 -0.401
-11.105 -8.285 -2.810
-12.127 -8.317 -3.804
-8.449 -8.028 -0.401
-8.916 -6.879 -2.142
-7.868 -7.188 -0.663
-7.998 -7.201 -0.782
-7.998 -7.201 -0.782
-10.700 -8.311 -2.429
-11.280 -7.278 -4.015
-10.700 -8.311 -2.429
-8.231 -7.639 -0.569
-10.700 -8.311 -2.429
-11.804 -7.766 -4.030
-10.700 -8.311 -2.429
-7.998 -7.201 -0.782
-7.998 -7.201 -0.782
-7.868 -7.188 -0.663
-11.105 -8.285 -2.810
-12.127 -8.317 -3.804
-10.700 -8.311 -2.429
-10.700 -8.311 -2.429
-12.127 -8.317 -3.804
-10.700 -8.311 -2.429
-10.700 -8.311 -2.429
-7.998 -7.201 -0.782
-10.700 -8.311 -2.429
-12.127 -8.317 -3.804
-8.449 -8.028 -0.401
-12.127 -8.317 -3.804
-11.598 -7.691 -3.898
-11.598 -7.691 -3.898
-8.206 -7.699 -0.487
-11.598 -7.691 -3.898
-12.127 -8.317 -3.804
-12.127 -8.317 -3.804
-8.916 -6.879 -2.142
-12.127 -8.317 -3.804
-7.868 -7.188 -0.663
-11.598 -7.691 -3.898
-9.469 -8.104 -1.372
-8.916 -6.879 -2.142
-10.700 -8.311 -2.429
-11.598 -7.691 -3.898
-10.700 -8.311 -2.429
-12.127 -8.317 -3.804
-7.868 -7.188 -0.663
-8.916 -6.879 -2.142
-7.998 -7.201 -0.782
-12.127 -8.317 -3.804
-8.916 -6.879 -2.142
-10.700 -8.311 -2.429
-10.700 -8.311 -2.429
-10.700 -8.311 -2.429
-9.781 -6.377 -3.393
-10.700 -8.311 -2.429
-12.127 -8.317 -3.804
-9.469 -8.104 -1.371
-11.598 -7.691 -3.898
-10.700 -8.311 -2.429
-7.868 -7.188 -0.663
-9.781 -6.377 -3.393
-12.127 -8.317 -3.804
-8.916 -6.879 -2.142
-12.127 -8.317 -3.804
-10.700 -8.311 -2.429
-10.700 -8.311 -2.429
-11.598 -7.691 -3.898
-12.127 -8.317 -3.804
-11.598 -7.691 -3.898
-10.845 -8.877 -2.311
-10.700 -8.311 -2.429
-8.400 -7.714 -0.664
-11.287 -7.278 -4.024
-8.918 -6.877 -2.146
-10.703 -8.311 -2.433
-8.450 -8.027 -0.402
-11.608 -7.689 -3.910
-12.138 -8.315 -3.818
-10.703 -8.311 -2.433
-7.999 -7.201 -0.783
-7.868 -7.188 -0.663
-12.138 -8.315 -3.818
-7.999 -7.201 -0.783
-11.608 -7.689 -3.910
-10.703 -8.311 -2.433
-10.703 -8.311 -2.433
-11.608 -7.689 -3.910
-12.138 -8.315 -3.818
-7.868 -7.188 -0.663
-10.703 -8.311 -2.433
-8.231 -7.639 -0.570
-11.814 -7.765 -4.042
-11.608 -7.689 -3.910
-12.132 -9.002 -3.175
-8.918 -6.877 -2.146
-11.608 -7.689 -3.910
-12.138 -8.315 -3.818
-8.918 -6.877 -2.146
-10.703 -8.311 -2.433
-10.703 -8.311 -2.433
-11.111 -8.283 -2.817
-10.703 -8.311 -2.433
-8.207 -7.699 -0.488
-12.138 -8.315 -3.818
-10.703 -8.311 -2.433
-7.999 -7.201 -0.783
-7.868 -7.188 -0.663
-11.608 -7.689 -3.910
-8.207 -7.699 -0.488
-10.703 -8.311 -2.433
-11.608 -7.689 -3.910
-11.311 -9.327 -2.001
-7.999 -7.201 -0.783
-8.231 -7.639 -0.570
-10.703 -8.311 -2.433
-10.703 -8.311 -2.433
-10.866 -8.228 -2.642
-10.703 -8.311 -2.433
-7.868 -7.188 -0.663
-8.918 -6.877 -2.146
-10.703 -8.311 -2.433
-11.111 -8.283 -2.817
-7.868 -7.188 -0.663
-8.918 -6.877 -2.146
-10.703 -8.311 -2.433
-12.139 -8.315 -3.818
-7.999 -7.201 -0.783
-9.652 -9.469 -0.163
-12.139 -8.315 -3.818
-7.868 -7.188 -0.663
-12.062 -8.316 -3.741
-10.703 -8.311 -2.433
-10.769 -8.898 -2.210
-11.108 -8.284 -2.813
-11.605 -7.689 -3.906
-8.925 -6.750 -2.314
-7.416 -7.365 -0.078
-8.784 -6.399 -2.539
-12.767 -10.034 -2.748
-7.258 -7.352 0.106
-6.301 -7.507 1.222
-8.918 -6.749 -2.309
-11.954 -9.331 -2.734
-6.301 -7.507 1.222
-8.956 -6.425 -2.681
-6.130 -6.722 0.605
-12.170 -9.858 -2.332
-12.849 -10.032 -2.835
-11.949 -9.319 -2.757
-12.687 -9.950 -2.767
-9.117 -6.769 -2.483
-6.298 -7.508 1.226
-11.944 -9.305 -2.773
-12.847 -10.032 -2.832
-6.130 -6.722 0.605
-9.120 -6.770 -2.485
-5.992 -7.081 1.100
-12.771 -10.035 -2.751
-12.771 -10.035 -2.751
-7.399 -7.364 -0.060
-9.137 -6.769 -2.502
-7.257 -7.345 0.104
-6.300 -7.507 1.222
-8.918 -6.749 -2.309
-9.130 -6.769 -2.496
-12.850 -10.032 -2.836
-7.259 -7.348 0.101
-11.949 -9.331 -2.743
-11.951 -9.314 -2.757
-6.155 -6.744 0.603
-12.771 -10.035 -2.751
-6.134 -7.245 1.123
-9.111 -6.770 -2.477
-7.399 -7.364 -0.060
-9.137 -6.769 -2.502