-7.994 -8.237 0.251
-11.400 -12.867 1.421
-9.507 -9.161 -0.345
-9.507 -9.161 -0.345
-7.235 -7.411 0.176
-9.507 -9.161 -0.344
-7.973 -8.238 0.267
-7.235 -7.411 0.176
-7.960 -8.525 0.574
-7.239 -7.329 0.100
-7.447 -7.467 0.026
-7.712 -7.997 0.273
-7.993 -8.241 0.256
-7.239 -7.329 0.100
-8.524 -9.250 0.739
-7.880 -8.172 0.299
-7.875 -8.129 0.261
-9.476 -9.163 -0.312
-7.875 -8.131 0.263
-7.874 -8.129 0.262
-12.526 -12.911 0.357
-7.967 -8.050 0.091
-7.967 -8.050 0.091
-7.967 -8.050 0.091
-7.875 -8.129 0.261
-7.065 -7.334 0.276
-9.502 -9.163 -0.338
-7.986 -8.237 0.259
-7.875 -8.128 0.261
-8.283 -8.730 0.446
-7.401 -7.248 -0.132
-7.875 -8.129 0.261
-7.875 -8.129 0.261
-8.056 -8.618 0.572
-7.875 -8.129 0.261
-7.401 -7.246 -0.134
-9.502 -9.163 -0.338
-7.967 -8.050 0.091
-7.713 -7.997 0.272
-7.967 -8.050 0.091
-7.881 -8.171 0.296
-8.056 -8.618 0.571
-7.661 -7.888 0.235
-7.065 -7.334 0.276
-8.283 -8.723 0.437
-8.062 -8.237 0.187
-7.197 -7.393 0.193
-7.881 -8.171 0.297
-7.881 -8.171 0.297
-11.493 -12.698 1.210
-7.966 -8.050 0.091
-7.264 -7.316 0.060
-7.392 -7.246 -0.124
-7.401 -7.246 -0.134
-7.967 -8.050 0.091
-7.875 -8.129 0.262
-9.476 -9.163 -0.312
-7.401 -7.250 -0.130
-7.402 -7.246 -0.134
-7.875 -8.128 0.261
-12.503 -13.298 0.795
-6.444 -7.985 1.543
-6.444 -7.985 1.543
-7.713 -7.997 0.272
-7.967 -8.050 0.091
-7.448 -7.467 0.026
-8.056 -8.618 0.572
-7.959 -8.525 0.575
-6.497 -7.987 1.493
-8.056 -8.618 0.572
-8.283 -8.728 0.443
-8.056 -8.618 0.572
-6.838 -7.644 0.813
-6.497 -7.987 1.493
-8.888 -9.073 0.187
-7.875 -8.129 0.261
-11.988 -12.787 0.801
-7.713 -7.997 0.272
-7.448 -7.467 0.026
-11.035 -12.269 1.249
-7.713 -7.997 0.272
-6.159 -8.085 1.909
-8.283 -8.728 0.444
-6.497 -7.478 0.949
-8.283 -8.728 0.443
-8.056 -8.617 0.571
-6.444 -7.985 1.543
-7.189 -8.128 0.927
-8.081 -8.582 0.502
-10.062 -10.796 0.707
-10.199 -11.668 1.438
-7.875 -8.129 0.261
-8.055 -8.618 0.572
-8.055 -8.618 0.572
-6.444 -7.985 1.543
-7.401 -7.247 -0.134
-9.173 -9.683 0.514
-7.875 -8.128 0.261
-7.967 -8.050 0.091
-7.959 -8.525 0.575
-6.553 -8.269 1.723
-8.432 -9.939 1.517
-8.283 -8.728 0.444
-7.875 -8.128 0.261
-6.497 -7.987 1.493
-7.967 -8.050 0.091
-9.324 -10.006 0.650
-8.888 -9.072 0.187
-7.197 -7.392 0.192
-7.966 -8.050 0.091
-7.875 -8.129 0.261
-7.875 -8.129 0.261
-7.713 -7.997 0.272
-7.605 -8.190 0.589
-9.161 -9.686 0.529
-6.497 -7.987 1.493
-6.497 -7.987 1.493
-6.497 -7.987 1.493
-7.713 -7.997 0.272
-7.967 -8.050 0.091
-7.396 -8.152 0.747
-7.967 -8.050 0.091
-6.497 -7.987 1.493
-7.713 -7.997 0.272
-7.967 -8.050 0.091
-9.776 -10.187 0.429
-9.336 -9.861 0.486
-8.508 -9.934 1.436
-7.197 -7.393 0.192
-9.502 -9.164 -0.337
-6.497 -7.987 1.493
-8.886 -9.073 0.190
-8.283 -8.727 0.442
-8.894 -9.074 0.183
-7.967 -8.050 0.091
-6.497 -7.987 1.493
-7.875 -8.129 0.262
-9.776 -10.187 0.429
-7.875 -8.129 0.261
-7.875 -8.129 0.261
-6.444 -7.985 1.543
-7.713 -7.997 0.272
-7.448 -7.467 0.026
-7.448 -7.467 0.026
-6.333 -7.953 1.612
-11.984 -12.787 0.805
-6.497 -7.987 1.493
-9.332 -9.991 0.625
-9.183 -9.685 0.505
-9.522 -9.164 -0.357
-8.889 -9.072 0.186
-7.448 -7.467 0.026
-7.875 -8.130 0.262
-6.234 -7.045 0.662
-12.528 -12.912 0.356
-8.889 -9.072 0.187
-7.959 -8.525 0.575
-8.554 -9.338 0.795
-7.241 -7.411 0.170
-7.875 -8.128 0.261
-7.401 -7.248 -0.132
-7.960 -8.051 0.098
-7.874 -8.132 0.264
-9.346 -9.993 0.613
-6.497 -7.987 1.493
-12.199 -12.775 0.580
-7.967 -8.050 0.091
-7.967 -8.050 0.091
-7.196 -7.392 0.192
-6.497 -7.987 1.493
-7.713 -7.997 0.272
-7.396 -8.152 0.747
-12.502 -13.298 0.796
-7.448 -7.467 0.026
-6.497 -7.987 1.493
-6.497 -7.987 1.493
-8.894 -9.074 0.183
-5.551 -6.482 0.921
-6.553 -8.269 1.723
-9.160 -9.682 0.525
-6.498 -7.987 1.492
-7.959 -8.525 0.575
-9.161 -9.687 0.530
-7.065 -7.334 0.276
-7.398 -8.151 0.744
-8.508 -9.934 1.435
-6.498 -7.987 1.492
-7.959 -8.525 0.575
-7.959 -8.525 0.575
-7.967 -8.050 0.091
-6.498 -7.987 1.492
-7.448 -7.467 0.026
-8.061 -8.225 0.173
-7.959 -8.525 0.575
-7.448 -7.467 0.026
-6.444 -7.985 1.543
-9.470 -9.133 -0.338
-8.508 -9.935 1.437
-8.283 -8.728 0.444
-7.875 -8.129 0.261
-7.396 -8.152 0.747
-8.056 -8.618 0.571
-5.551 -6.671 1.134
-8.278 -8.725 0.446
-9.161 -9.686 0.529
-8.277 -8.728 0.449
-7.713 -7.997 0.272
-6.758 -7.499 0.756
-8.170 -8.933 0.757
-9.447 -9.145 -0.317
-9.242 -10.010 0.724
-9.723 -10.192 0.487
-8.554 -9.338 0.796
-7.959 -8.525 0.575
-7.448 -7.467 0.026
-8.554 -9.338 0.796
-7.448 -7.467 0.026
-7.713 -7.997 0.272
-7.401 -7.246 -0.133
-9.775 -10.187 0.429
-9.173 -9.683 0.514
-7.401 -7.247 -0.133
-7.196 -7.392 0.192
-7.959 -8.525 0.575
-7.401 -7.247 -0.132
-7.875 -8.129 0.261
-8.634 -9.636 0.987
-9.173 -9.687 0.517
-12.503 -13.298 0.795
-6.535 -7.103 0.552
-7.401 -7.247 -0.133
-8.432 -9.939 1.516
-8.283 -8.728 0.444
-8.081 -8.582 0.502
-6.444 -7.985 1.543
-7.713 -7.997 0.272
-9.551 -10.192 0.655
-7.713 -7.997 0.272
-7.251 -7.417 0.167
-9.176 -9.684 0.511
-6.489 -7.991 1.504
-7.875 -8.129 0.261
-6.489 -7.991 1.504
-7.402 -7.247 -0.133
-8.283 -8.728 0.443
-9.461 -9.127 -0.330
-9.173 -9.683 0.513
-7.875 -8.129 0.261
-9.489 -9.170 -0.319
-12.503 -13.299 0.795
-6.444 -7.985 1.543
-7.196 -7.392 0.192
-6.444 -7.985 1.543
-6.497 -7.987 1.493
-8.283 -8.728 0.443
-9.502 -9.163 -0.338
-7.967 -8.050 0.091
-7.875 -8.129 0.261
-9.757 -10.187 0.448
-7.959 -8.525 0.575
-8.176 -9.796 1.623
-7.881 -8.171 0.296
-9.476 -9.159 -0.316
-6.377 -7.983 1.610
-8.081 -8.582 0.502
-9.173 -9.685 0.515
-9.476 -9.162 -0.313
-7.917 -8.359 0.456
-7.396 -8.152 0.747
-8.176 -9.798 1.625
-12.127 -13.186 1.044
-7.881 -8.171 0.296
-6.701 -8.266 1.573
-7.066 -7.329 0.266
-6.789 -8.381 1.610
-12.526 -12.920 0.365
-7.874 -8.128 0.263
-8.081 -8.582 0.502
-7.713 -7.997 0.272
-7.448 -7.467 0.026
-7.401 -7.247 -0.133
-7.448 -7.467 0.026
-8.558 -9.340 0.793
-7.730 -8.321 0.598
-7.881 -8.170 0.296
-9.522 -9.164 -0.358
-7.874 -8.132 0.263
-7.875 -8.129 0.261
-7.875 -8.131 0.262
-7.882 -8.171 0.296
-8.432 -9.936 1.514
-7.396 -8.152 0.747
-9.489 -9.173 -0.316
-8.544 -8.718 0.175
-8.548 -9.338 0.802
-9.502 -9.163 -0.339
-7.713 -7.997 0.272
-9.776 -10.187 0.429
-7.401 -7.246 -0.134
-7.396 -8.152 0.747
-8.661 -8.730 0.068
-6.838 -7.644 0.813
-9.476 -9.163 -0.312
-9.173 -9.683 0.513
-11.478 -12.965 1.483
-7.875 -8.131 0.263
-9.522 -9.164 -0.358
-7.605 -8.186 0.587
-7.662 -7.888 0.234
-9.161 -9.686 0.529
-6.497 -7.478 0.950
-7.874 -8.129 0.262
-8.889 -9.072 0.186
-9.476 -9.163 -0.312
-6.497 -7.987 1.493
-7.875 -8.129 0.261
-7.396 -8.152 0.747
-12.529 -12.912 0.354
-9.723 -10.192 0.487
-9.501 -9.164 -0.336
-8.889 -9.072 0.186
-7.448 -7.467 0.026
-7.810 -8.471 0.668
-7.614 -9.530 1.909
-9.489 -9.165 -0.323
-7.448 -7.467 0.026
-8.889 -9.072 0.187
-7.395 -8.152 0.748
-7.189 -8.128 0.927
-8.432 -9.937 1.514
-7.448 -7.467 0.026
-7.401 -7.247 -0.132
-7.396 -8.152 0.747
-9.522 -9.162 -0.360
-7.396 -8.152 0.747
-7.982 -8.235 0.261
-7.401 -7.246 -0.133
-12.773 -12.905 0.128
-8.432 -9.937 1.514
-7.401 -7.247 -0.133
-6.497 -7.987 1.493
-7.196 -7.392 0.192
-8.507 -9.933 1.435
-7.662 -7.887 0.234
-7.396 -8.152 0.747
-9.705 -10.192 0.505
-7.395 -8.152 0.748
-7.967 -8.050 0.091
-9.775 -10.187 0.429
-6.444 -7.985 1.543
-6.497 -7.987 1.493
-8.886 -9.073 0.191
-7.401 -7.248 -0.132
-9.776 -10.187 0.429
-9.987 -11.172 1.201
-7.713 -7.997 0.272
-11.501 -12.701 1.201
-7.875 -8.129 0.261
-5.777 -7.363 1.593
-7.448 -7.467 0.026
-7.197 -7.393 0.193
-7.713 -7.997 0.272
-7.713 -7.997 0.272
-9.522 -9.164 -0.357
-7.401 -7.248 -0.132
-9.776 -10.187 0.429
-7.401 -7.248 -0.131
-7.881 -8.171 0.297
-7.959 -8.525 0.575
-7.875 -8.130 0.262
-9.776 -10.187 0.429
-8.277 -8.727 0.448
-7.603 -8.190 0.591
-7.655 -7.886 0.241
-7.875 -8.130 0.261
-6.497 -7.987 1.493
-5.506 -7.520 2.009
-7.448 -7.467 0.026
-7.713 -7.997 0.272
-6.444 -7.985 1.543
-8.886 -9.073 0.191
-8.555 -9.232 0.693
-8.508 -9.934 1.437
-8.508 -9.935 1.437
-7.265 -7.315 0.059
-9.574 -10.544 0.976
-9.776 -10.187 0.429
-7.875 -8.129 0.261
-7.713 -7.997 0.272
-7.959 -8.525 0.575
-7.448 -7.467 0.026
-7.396 -8.152 0.747
-8.081 -8.582 0.502
-7.816 -9.523 1.702
-6.497 -7.987 1.493
-7.401 -7.247 -0.133
-9.522 -9.164 -0.357
-7.448 -7.467 0.026
-9.323 -10.017 0.662
-7.740 -9.906 2.165
-7.662 -7.887 0.234
-7.065 -7.333 0.275
-5.506 -7.520 2.009
-7.401 -7.246 -0.133
-7.448 -7.467 0.026
-6.497 -7.987 1.493
-7.396 -8.152 0.747
-7.401 -7.247 -0.134
-8.432 -9.938 1.516
-7.197 -7.393 0.193
-8.508 -9.934 1.437
-7.713 -7.997 0.272
-9.502 -9.164 -0.337
-7.688 -7.998 0.313
-9.334 -9.861 0.487
-9.348 -9.992 0.611
-7.959 -8.525 0.575
-6.423 -7.985 1.566
-6.553 -8.269 1.723
-7.967 -8.050 0.091
-9.476 -9.163 -0.312
-9.776 -10.187 0.429
-6.498 -7.987 1.492
-8.432 -9.935 1.513
-8.508 -9.934 1.437
-7.713 -7.997 0.272
-7.448 -7.467 0.026
-7.875 -8.128 0.261
-9.776 -10.187 0.429
-8.557 -9.340 0.794
-7.401 -7.247 -0.134
-7.959 -8.525 0.575
-7.875 -8.129 0.261
-9.183 -9.686 0.505
-7.959 -8.525 0.575
-7.713 -7.997 0.272
-9.776 -10.187 0.429
-7.448 -7.467 0.026
-9.776 -10.187 0.429
-7.881 -8.171 0.297
-7.401 -7.247 -0.133
-7.713 -7.997 0.272
-7.966 -8.050 0.091
-7.881 -8.171 0.296
-9.501 -9.164 -0.337
-6.444 -7.985 1.543
-6.444 -7.985 1.543
-7.981 -8.889 0.920
-7.401 -7.247 -0.133
-7.448 -7.467 0.026
-8.432 -9.938 1.516
-8.054 -8.620 0.575
-8.674 -8.731 0.055
-6.444 -7.985 1.543
-6.444 -7.985 1.543
-7.065 -7.334 0.276
-9.476 -9.163 -0.312
-7.448 -7.467 0.026
-9.522 -9.164 -0.358
-9.776 -10.187 0.429
-7.189 -8.128 0.927
-7.189 -8.128 0.927
-8.541 -9.934 1.403
-7.917 -8.357 0.453
-7.189 -8.128 0.927
-7.873 -8.134 0.266
-7.875 -8.131 0.262
-7.448 -7.467 0.026
-9.808 -10.078 0.269
-6.700 -8.267 1.575
-7.959 -8.526 0.575
-9.522 -9.164 -0.357
-8.284 -8.729 0.443
-7.448 -7.467 0.026
-8.081 -8.582 0.502
-8.432 -9.934 1.512
-7.229 -8.157 0.937
-7.713 -7.997 0.272
-6.489 -7.991 1.504
-7.196 -7.392 0.192
-7.875 -8.129 0.261
-8.233 -9.272 1.033
-7.401 -7.248 -0.133
-7.401 -7.247 -0.133
-9.522 -9.164 -0.357
-7.402 -7.247 -0.133
-7.875 -8.131 0.262
-9.771 -10.189 0.436
-8.534 -9.338 0.815
-12.526 -12.911 0.357
-7.448 -7.467 0.026
-9.950 -11.147 1.202
-7.967 -8.050 0.091
-6.489 -7.991 1.504
-12.132 -13.187 1.039
-7.401 -7.248 -0.132
-9.522 -9.164 -0.357
-7.875 -8.129 0.261
-7.189 -8.128 0.927
-6.424 -7.985 1.565
-6.509 -8.268 1.766
-7.401 -7.247 -0.133
-7.448 -7.467 0.026
-8.889 -9.072 0.187
-6.553 -8.269 1.723
-10.071 -10.644 0.437
-7.066 -7.329 0.266
-8.887 -9.073 0.190
-6.702 -8.266 1.572
-9.161 -9.686 0.529
-6.509 -8.268 1.765
-7.875 -8.128 0.261
-7.875 -8.130 0.262
-9.161 -9.686 0.529
-6.377 -7.983 1.610
-7.713 -7.997 0.272
-9.502 -9.163 -0.338
-7.401 -7.247 -0.133
-8.508 -9.935 1.437
-7.662 -7.888 0.234
-8.432 -9.938 1.515
-6.701 -8.266 1.573
-7.606 -8.188 0.589
-6.497 -7.987 1.493
-6.444 -7.985 1.543
-7.448 -7.467 0.026
-7.881 -8.171 0.296
-8.547 -9.338 0.802
-7.875 -8.128 0.260
-9.173 -9.685 0.516
-9.268 -9.996 0.692
-8.508 -9.935 1.437
-7.875 -8.129 0.261
-8.176 -9.796 1.623
-7.875 -8.128 0.260
-7.959 -8.525 0.575
-7.532 -7.708 0.193
-7.890 -8.751 0.882
-7.960 -8.051 0.098
-10.403 -11.035 0.650
-7.875 -8.129 0.261
-7.189 -8.128 0.927
-7.967 -8.050 0.091
-7.401 -7.247 -0.132
-7.662 -7.887 0.234
-9.776 -10.187 0.428
-7.875 -8.129 0.261
-6.994 -7.694 0.716
-9.776 -10.187 0.428
-8.932 -9.861 0.920
-6.444 -7.985 1.543
-6.701 -8.266 1.573
-6.497 -7.987 1.493
-7.612 -9.530 1.911
-10.637 -11.554 0.854
-9.133 -9.622 0.494
-7.401 -7.247 -0.133
-7.967 -8.050 0.091
-7.448 -7.467 0.026
-7.988 -8.237 0.257
-7.874 -8.132 0.264
-7.988 -8.235 0.255
-7.189 -8.128 0.927
-7.448 -7.467 0.026
-7.448 -7.467 0.026
-9.520 -9.155 -0.363
-6.704 -8.265 1.570
-7.967 -8.050 0.091
-7.189 -8.128 0.927
-8.889 -9.071 0.186
-7.401 -8.150 0.740
-8.424 -9.937 1.523
-6.497 -7.987 1.493
-6.444 -7.985 1.543
-9.365 -9.857 0.454
-7.966 -8.050 0.091
-8.081 -8.582 0.502
-7.537 -7.708 0.189
-7.967 -8.050 0.091
-7.662 -7.888 0.234
-8.894 -9.073 0.183
-7.401 -7.247 -0.133
-12.529 -12.912 0.354
-12.869 -12.950 0.079
-12.503 -13.298 0.794
-12.503 -13.298 0.794
-11.990 -12.787 0.798
-9.178 -9.687 0.511
-12.797 -12.945 0.146
-11.990 -12.787 0.798
-9.179 -9.684 0.509
-9.179 -9.683 0.508
-9.179 -9.683 0.508
-9.179 -9.683 0.508
-12.129 -13.186 1.042
-9.157 -9.684 0.531
-12.135 -13.185 1.036
-12.504 -13.298 0.794
-11.025 -12.236 1.236
-10.200 -11.359 1.160
-9.179 -9.684 0.509
-9.273 -9.690 0.421
-9.027 -10.035 1.037
-9.157 -9.684 0.531
-9.179 -9.683 0.508
-12.503 -13.298 0.794
-9.179 -9.683 0.508
-8.082 -8.582 0.502
-11.556 -12.704 1.151
-12.503 -13.298 0.794
-9.179 -9.683 0.508
-12.529 -12.912 0.355
-9.179 -9.683 0.508
-11.502 -12.698 1.197
-9.563 -10.528 0.977
-9.179 -9.683 0.508
-8.553 -9.337 0.795
-9.179 -9.684 0.509
-9.179 -9.683 0.508
-9.179 -9.684 0.508
-12.797 -12.945 0.146
-8.553 -9.337 0.795
-12.503 -13.298 0.794
-9.179 -9.683 0.508
-9.157 -9.684 0.531
-9.469 -9.161 -0.307
-12.503 -13.298 0.794
-9.179 -9.686 0.510
-9.179 -9.683 0.508
-9.179 -9.683 0.508
-9.179 -9.683 0.508
-9.179 -9.684 0.508
-11.498 -12.705 1.205
-12.503 -13.298 0.794
-9.179 -9.683 0.508
-8.082 -8.582 0.502
-8.024 -8.229 0.219
-9.513 -9.162 -0.351
-9.179 -9.685 0.509
-7.960 -8.525 0.575
-7.980 -8.237 0.267
-9.469 -9.161 -0.307
-12.529 -12.912 0.355
-9.469 -9.161 -0.307
-12.503 -13.298 0.794
-9.179 -9.683 0.507
-9.514 -9.161 -0.352
-11.990 -12.787 0.798
-9.469 -9.161 -0.307
-9.179 -9.683 0.508
-11.499 -12.701 1.204
-8.278 -8.728 0.448
-8.890 -9.073 0.186
-8.032 -8.220 0.205
-11.502 -12.701 1.200
-10.976 -12.268 1.304
-12.504 -13.298 0.794
-10.670 -12.429 1.731
-12.129 -13.186 1.042
-9.179 -9.682 0.507
-8.284 -8.727 0.441
-9.179 -9.681 0.506
-8.553 -9.337 0.796
-9.469 -9.161 -0.307
-9.157 -9.684 0.531
-10.913 -12.286 1.394
-9.179 -9.683 0.508
-7.987 -8.235 0.256
-9.179 -9.683 0.508
-8.893 -9.071 0.182
-11.009 -12.183 1.185
-9.157 -9.684 0.531
-8.056 -8.618 0.571
-9.469 -9.161 -0.307
-9.179 -9.683 0.508
-9.157 -9.684 0.531
-8.890 -9.073 0.186
-7.447 -7.467 0.027
-9.157 -9.684 0.531
-8.278 -8.728 0.448
-8.278 -8.727 0.447
-9.157 -9.684 0.531
-11.502 -12.701 1.200
-9.514 -9.161 -0.352
-12.129 -13.186 1.042
-10.525 -11.157 0.635
-7.987 -8.235 0.255
-9.338 -9.987 0.615
-8.890 -9.073 0.186
-8.830 -9.706 0.881
-9.514 -9.161 -0.352
-12.135 -13.186 1.036
-8.285 -8.729 0.443
-9.514 -9.161 -0.352
-9.342 -9.856 0.475
-8.553 -9.337 0.795
-12.503 -13.298 0.794
-9.157 -9.684 0.531
-9.514 -9.161 -0.352
-7.987 -8.234 0.255
-11.498 -12.685 1.191
-9.179 -9.683 0.508
-9.469 -9.161 -0.307
-9.350 -9.866 0.478
-9.179 -9.684 0.509
-11.502 -12.701 1.200
-9.179 -9.684 0.509
-9.513 -9.161 -0.351
-9.339 -9.988 0.615
-9.179 -9.684 0.509
-8.278 -8.729 0.449
-7.958 -8.051 0.100
-7.981 -8.227 0.251
-9.513 -9.162 -0.351
-11.484 -12.737 1.253
-9.513 -9.161 -0.351
-8.033 -8.230 0.200
-8.278 -8.728 0.448
-9.176 -9.684 0.511
-9.459 -9.163 -0.296
-9.174 -9.685 0.514
-9.504 -9.163 -0.340
-9.504 -9.163 -0.340
-8.039 -8.244 0.215
-7.966 -8.525 0.568
-9.503 -9.164 -0.339
-9.503 -9.163 -0.339
-9.503 -9.163 -0.339
-9.459 -9.163 -0.296
-7.447 -7.467 0.027
-7.966 -8.525 0.568
-9.174 -9.685 0.514
-9.153 -9.685 0.536
-9.174 -9.685 0.514
-9.504 -9.163 -0.340
-11.501 -12.703 1.202
-9.103 -9.876 0.721
-8.040 -8.250 0.219
-11.472 -12.703 1.239
-9.503 -9.164 -0.339
-8.887 -9.073 0.190
-8.277 -8.727 0.447
-9.503 -9.164 -0.339
-11.500 -12.691 1.193
-7.984 -8.231 0.254
-8.278 -8.727 0.448
-8.082 -8.582 0.502
-9.503 -9.163 -0.339
-9.476 -9.163 -0.312
-9.502 -9.163 -0.338
-9.173 -9.685 0.515
-8.277 -8.727 0.448
-9.174 -9.683 0.512
-8.081 -8.582 0.502
-9.502 -9.163 -0.338
-12.502 -13.298 0.795
-12.526 -12.912 0.357
-7.986 -8.234 0.256
-9.476 -9.163 -0.312
-7.291 -7.752 0.450
-9.501 -9.164 -0.337
-9.501 -9.164 -0.337
-11.185 -12.242 1.087
-9.457 -9.163 -0.293
-8.039 -8.249 0.219
-9.502 -9.164 -0.337
-8.039 -8.247 0.217
-11.480 -12.741 1.262
-9.457 -9.163 -0.293
-9.476 -9.163 -0.312
-8.283 -8.728 0.443
-8.548 -9.338 0.802
-7.967 -8.050 0.091
-8.548 -9.338 0.802
-8.284 -8.727 0.442
-7.986 -8.233 0.255
-8.887 -9.073 0.190
-9.457 -9.163 -0.294
-9.332 -9.991 0.625
-12.132 -13.186 1.038
-9.173 -9.685 0.515
-9.173 -9.685 0.515
-11.988 -12.787 0.801
-9.332 -9.992 0.625
-9.502 -9.163 -0.338
-7.233 -7.409 0.176
-9.502 -9.163 -0.338
-7.967 -8.050 0.091
-7.967 -8.050 0.091
-9.502 -9.163 -0.338
-12.502 -13.298 0.795
-11.988 -12.787 0.801
-8.887 -9.073 0.190
-7.986 -8.238 0.260
-9.173 -9.685 0.515
-12.502 -13.298 0.795
-9.502 -9.163 -0.338
-12.526 -12.914 0.360
-11.988 -12.787 0.801
-12.526 -12.916 0.361
-9.502 -9.163 -0.338
-9.457 -9.163 -0.293
-10.800 -12.321 1.515
-12.526 -12.912 0.357
-7.967 -8.050 0.091
-8.887 -9.073 0.190
-9.311 -10.010 0.667
-9.502 -9.164 -0.337
-8.277 -8.728 0.449
-7.969 -8.324 0.363
-11.501 -12.700 1.201
-9.333 -9.992 0.624
-7.967 -8.050 0.091
-9.502 -9.164 -0.337
-7.958 -8.051 0.100
-9.457 -9.163 -0.294
-8.889 -9.072 0.186
-9.476 -9.163 -0.312
-9.502 -9.163 -0.338
-8.548 -9.338 0.802
-9.502 -9.163 -0.338
-11.476 -12.657 1.178
-12.497 -13.298 0.800
-12.526 -12.914 0.360
-9.151 -9.685 0.538
-8.657 -9.068 0.412
-9.173 -9.686 0.517
-10.761 -12.229 1.451
-8.062 -8.242 0.186
-9.476 -9.163 -0.312
-9.173 -9.685 0.515
-12.529 -12.912 0.355
-8.890 -9.072 0.186
-12.526 -12.913 0.358
-8.889 -9.072 0.186
-12.502 -13.298 0.796
-11.988 -12.787 0.801
-9.502 -9.163 -0.338
-10.902 -12.099 1.154
-7.986 -8.235 0.257
-9.502 -9.163 -0.338
-8.887 -9.073 0.190
-11.501 -12.707 1.206
-12.127 -13.186 1.044
-9.502 -9.163 -0.338
-8.548 -9.338 0.802
-11.497 -12.692 1.198
-8.887 -9.073 0.190
-9.173 -9.685 0.515
-8.548 -9.338 0.802
-7.881 -8.171 0.296
-9.502 -9.163 -0.338
-8.548 -9.338 0.802
-9.502 -9.163 -0.338
-9.332 -9.991 0.625
-8.277 -8.727 0.448
-9.502 -9.163 -0.338
-8.531 -9.234 0.718
-8.548 -9.338 0.802
-9.173 -9.685 0.515
-8.056 -8.617 0.571
-9.173 -9.685 0.515
-11.501 -12.701 1.200
-7.707 -7.997 0.279
-7.286 -7.544 0.266
-8.548 -9.338 0.802
-7.982 -8.224 0.250
-12.127 -13.186 1.044
-11.501 -12.693 1.195
-9.502 -9.163 -0.338
-7.662 -7.887 0.234
-12.502 -13.298 0.796
-12.526 -12.912 0.358
-7.984 -8.229 0.250
-7.447 -7.467 0.027
-9.173 -9.686 0.516
-9.476 -9.163 -0.312
-9.173 -9.685 0.515
-12.795 -12.947 0.150
-8.651 -9.055 0.405
-9.173 -9.684 0.514
-9.502 -9.163 -0.338
-11.490 -12.719 1.232
-8.277 -8.728 0.448
-9.173 -9.685 0.515
-7.985 -8.231 0.254
-9.704 -10.744 1.059
-9.332 -9.991 0.625
-12.502 -13.298 0.795
-8.548 -9.338 0.802
-7.982 -8.242 0.272
-8.548 -9.338 0.802
-8.555 -9.338 0.794
-7.973 -8.213 0.246
-8.548 -9.338 0.802
-9.502 -9.163 -0.338
-9.173 -9.685 0.515
-9.502 -9.163 -0.338
-9.173 -9.686 0.517
-8.887 -9.073 0.190
-8.170 -8.933 0.758
-9.476 -9.163 -0.312
-8.887 -9.073 0.190
-7.958 -8.051 0.100
-10.554 -12.108 1.537
-9.173 -9.684 0.514
-9.502 -9.162 -0.339
-8.087 -8.582 0.496
-9.502 -9.160 -0.341
-7.968 -8.247 0.281
-8.278 -8.727 0.447
-11.488 -12.724 1.238
-9.476 -9.163 -0.312
-9.476 -9.163 -0.312
-9.332 -9.991 0.625
-9.502 -9.163 -0.338
-8.031 -8.251 0.232
-8.277 -8.728 0.449
-8.087 -8.582 0.496
-12.480 -13.200 0.721
-9.502 -9.164 -0.337
-11.988 -12.787 0.801
-9.457 -9.163 -0.293
-9.476 -9.163 -0.312
-8.574 -9.295 0.749
-9.173 -9.685 0.515
-7.984 -8.246 0.269
-12.526 -12.910 0.356
-12.502 -13.298 0.795
-7.986 -8.236 0.259
-7.976 -8.215 0.248
-11.500 -12.696 1.198
-9.502 -9.163 -0.338
-9.502 -9.163 -0.338
-8.277 -8.728 0.449
-11.988 -12.787 0.801
-12.501 -13.307 0.805
-8.887 -9.073 0.190
-8.548 -9.338 0.802
-12.127 -13.185 1.043
-8.887 -9.073 0.190
-12.498 -13.323 0.817
-7.605 -8.184 0.585
-8.067 -8.249 0.190
-8.886 -9.073 0.191
-12.125 -13.160 1.023
-12.526 -12.912 0.358
-11.500 -12.702 1.203
-8.887 -9.073 0.190
-8.548 -9.338 0.802
-9.173 -9.685 0.515
-8.890 -9.072 0.186
-7.967 -8.050 0.091
-8.277 -8.729 0.449
-8.887 -9.073 0.190
-7.986 -8.235 0.257
-8.278 -8.727 0.447
-11.476 -12.743 1.270
-12.126 -13.189 1.047
-9.153 -9.686 0.537
-9.504 -9.163 -0.340
-9.504 -9.163 -0.340
-11.500 -12.689 1.191
-8.549 -9.338 0.800
-9.174 -9.685 0.514
-8.067 -8.233 0.176
-9.501 -9.164 -0.336
-7.992 -8.238 0.254
-7.881 -8.171 0.297
-9.501 -9.164 -0.337
-9.335 -9.861 0.487
-8.886 -9.073 0.190
-9.501 -9.164 -0.337
-9.335 -9.992 0.622
-8.886 -9.073 0.191
-7.919 -8.355 0.449
-7.748 -8.324 0.583
-8.886 -9.073 0.191
-8.886 -9.073 0.191
-12.526 -12.912 0.357
-7.991 -8.239 0.256
-12.127 -13.186 1.044
-9.371 -9.867 0.459
-7.985 -8.234 0.255
-9.333 -9.991 0.624
-8.886 -9.073 0.191
-12.513 -13.020 0.465
-8.889 -9.072 0.186
-9.502 -9.164 -0.337
-9.371 -9.869 0.461
-11.988 -12.787 0.801
-10.725 -12.410 1.676
-12.502 -13.298 0.796
-8.277 -8.727 0.448
-9.502 -9.164 -0.337
-12.502 -13.298 0.795
-8.886 -9.073 0.191
-9.502 -9.164 -0.337
-12.522 -12.911 0.361
-8.277 -8.728 0.449
-11.501 -12.701 1.201
-7.967 -8.050 0.091
-9.489 -9.170 -0.319
-9.502 -9.163 -0.338
-8.277 -8.729 0.450
-12.502 -13.298 0.795
-7.982 -8.226 0.248
-8.050 -8.617 0.578
-9.476 -9.163 -0.312
-9.364 -9.857 0.454
-8.887 -9.073 0.190
-8.548 -9.338 0.802
-8.017 -8.233 0.223
-9.364 -9.857 0.454
-8.277 -8.727 0.448
-10.704 -11.518 0.815
-12.526 -12.924 0.369
-8.887 -9.073 0.190
-9.173 -9.685 0.515
-7.958 -8.051 0.100
-8.887 -9.073 0.190
-9.502 -9.166 -0.336
-12.775 -12.946 0.169
-12.496 -12.900 0.375
-9.336 -9.859 0.484
-10.882 -12.256 1.383
-9.477 -9.163 -0.313
-12.528 -12.912 0.357
-9.174 -9.685 0.515
-12.528 -12.912 0.357
-9.336 -9.859 0.484
-9.503 -9.163 -0.339
-8.549 -9.338 0.800
-8.279 -8.728 0.447
-7.883 -8.171 0.294
-12.127 -13.186 1.044
-9.174 -9.685 0.515
-8.887 -9.072 0.189
-8.389 -9.133 0.766
-12.502 -13.298 0.795
-9.523 -9.163 -0.359
-7.958 -8.050 0.100
-12.502 -13.298 0.795
-7.967 -8.050 0.090
-7.685 -8.342 0.639
-8.887 -9.072 0.189
-11.037 -12.257 1.229
-9.503 -9.163 -0.339
-11.988 -12.787 0.800
-9.503 -9.163 -0.339
-11.502 -12.696 1.196
-9.347 -9.989 0.608
-9.174 -9.685 0.514
-12.127 -13.186 1.044
-12.502 -13.298 0.795
-8.887 -9.072 0.189
-9.174 -9.685 0.514
-9.336 -9.859 0.484
-8.006 -8.269 0.271
-8.279 -8.727 0.446
-8.887 -9.072 0.189
-12.500 -12.900 0.372
-8.887 -9.074 0.191
-12.502 -13.298 0.795
-9.503 -9.163 -0.339
-9.477 -9.163 -0.313
-9.477 -9.163 -0.313
-10.990 -12.247 1.269
-9.348 -9.989 0.607
-8.887 -9.072 0.189
-11.498 -12.720 1.224
-9.174 -9.685 0.515
-8.549 -9.338 0.800
-9.174 -9.682 0.511
-8.887 -9.072 0.189
-9.174 -9.685 0.514
-7.977 -8.218 0.249
-9.503 -9.163 -0.339
-9.296 -9.892 0.560
-12.127 -13.185 1.043
-12.528 -12.912 0.356
-7.967 -8.050 0.090
-9.523 -9.163 -0.359
-8.887 -9.072 0.189
-8.887 -9.072 0.189
-11.472 -12.722 1.263
-9.174 -9.687 0.517
-8.887 -9.072 0.189
-8.887 -9.072 0.189
-7.986 -8.237 0.260
-7.986 -8.229 0.251
-7.966 -8.525 0.568
-8.887 -9.072 0.189
-9.174 -9.685 0.515
-8.887 -9.072 0.189
-12.504 -13.297 0.792
-8.895 -9.073 0.182
-9.184 -9.686 0.505
-9.348 -9.989 0.607
-9.161 -9.686 0.528
-10.930 -12.269 1.341
-12.504 -13.297 0.792
-8.887 -9.073 0.190
-11.989 -12.787 0.799
-9.348 -9.989 0.606
-9.503 -9.163 -0.339
-7.960 -8.050 0.097
-11.314 -12.218 0.801
-9.174 -9.685 0.515
-9.523 -9.164 -0.359
-9.180 -9.694 0.517
-9.178 -9.686 0.508
-10.510 -12.095 1.604
-9.184 -9.685 0.504
-8.895 -9.072 0.181
-9.503 -9.163 -0.339
-9.522 -9.163 -0.360
-9.184 -9.685 0.504
-9.184 -9.683 0.503
-11.989 -12.787 0.799
-8.947 -9.087 0.145
-9.380 -9.851 0.480
-9.523 -9.164 -0.358
-12.778 -12.947 0.166
-9.522 -9.156 -0.366
-9.523 -9.164 -0.359
-12.129 -13.188 1.044
-11.490 -12.731 1.243
-9.474 -10.492 1.004
-11.489 -12.677 1.192
-8.947 -9.087 0.145
-12.528 -12.912 0.356
-9.168 -9.669 0.503
-9.184 -9.685 0.504
-9.523 -9.164 -0.359
-12.129 -13.186 1.042
-7.987 -8.235 0.256
-9.523 -9.164 -0.358
-12.530 -12.912 0.354
-7.958 -8.050 0.100
-8.018 -8.234 0.223
-9.523 -9.164 -0.358
-9.184 -9.684 0.503
-10.025 -11.263 1.240
-8.895 -9.073 0.182
-7.958 -8.050 0.100
-6.853 -7.618 0.774
-7.125 -7.288 0.170
-6.853 -7.618 0.774
-6.103 -6.766 0.660
-6.853 -7.618 0.774
-6.462 -7.430 0.966
-6.851 -7.290 0.447
-6.462 -7.430 0.966
-7.016 -7.133 0.126
-6.853 -7.638 0.793
-6.853 -7.641 0.795
-6.309 -7.427 1.116
-6.309 -7.427 1.116
-6.742 -7.142 0.409
-7.077 -7.290 0.220
-6.853 -7.641 0.795
-7.534 -7.827 0.306
-6.417 -7.428 1.009
-7.534 -7.829 0.308
-6.309 -7.427 1.116
-7.016 -7.134 0.128
-6.073 -6.792 0.724
-6.462 -7.430 0.966
-5.798 -6.350 0.564
-7.016 -7.134 0.128
-6.742 -7.143 0.410
-6.851 -7.290 0.447
-6.462 -7.430 0.966
-6.851 -7.290 0.447
-5.997 -6.853 0.871
-6.554 -7.130 0.581
-7.016 -7.133 0.127
-6.671 -7.127 0.470
-7.157 -7.283 0.133
-5.564 -6.668 1.118
-6.953 -7.283 0.337
-6.853 -7.617 0.773
-6.309 -7.428 1.116
-6.549 -7.125 0.586
-6.325 -7.425 1.098
-6.325 -7.425 1.098
-7.232 -7.863 0.645
-7.534 -7.829 0.308
-6.247 -7.384 1.113
-6.856 -7.289 0.441
-5.568 -6.668 1.114
-6.852 -7.290 0.446
-6.851 -7.616 0.775
-6.852 -7.289 0.445
-6.838 -7.644 0.813
-7.076 -7.289 0.221
-6.853 -7.618 0.774
-7.124 -7.287 0.171
-5.526 -6.213 0.696
-8.896 -9.073 0.181
-6.417 -7.428 1.009
-6.314 -6.845 0.533
-7.125 -7.288 0.171
-5.568 -6.668 1.113
-6.851 -7.640 0.797
-6.853 -7.618 0.774
-6.361 -6.536 0.176
-6.852 -7.289 0.445
-6.853 -7.616 0.771
-5.814 -6.668 0.867
-7.125 -7.288 0.171
-7.571 -7.793 0.238
-6.314 -6.844 0.532
-6.325 -7.425 1.098
-7.570 -7.793 0.239
-7.125 -7.287 0.170
-6.404 -6.943 0.555
-7.016 -7.132 0.126
-5.569 -6.668 1.113
-7.381 -7.888 0.517
-6.853 -7.641 0.795
-6.983 -7.643 0.666
-5.569 -6.668 1.113
-6.853 -7.641 0.795
-6.851 -7.290 0.446
-7.535 -7.831 0.309
-6.547 -7.099 0.537
-6.318 -7.397 1.081
-6.851 -7.616 0.774
-6.954 -7.283 0.336
-6.325 -7.425 1.098
-5.569 -6.668 1.113
-7.535 -7.829 0.308
-5.409 -6.633 1.226
-7.077 -7.290 0.221
-9.186 -9.684 0.502
-7.016 -7.134 0.127
-6.554 -7.130 0.580
-7.535 -7.832 0.310
-9.526 -9.162 -0.363
-6.207 -6.857 0.636
-6.849 -7.637 0.796
-5.798 -6.350 0.564
-6.833 -7.138 0.316
-6.397 -6.857 0.467
-6.688 -7.596 0.916
-6.853 -7.615 0.772
-6.852 -7.289 0.445
-6.760 -7.282 0.531
-6.013 -6.820 0.826
-6.462 -7.430 0.966
-6.266 -7.184 0.919
-6.711 -7.595 0.892
-6.098 -6.533 0.439
-5.816 -6.675 0.873
-6.388 -6.917 0.535
-12.504 -13.298 0.793
-7.253 -7.791 0.552
-5.502 -7.510 2.000
-6.852 -7.290 0.446
-6.554 -7.130 0.580
-6.074 -6.792 0.724
-6.275 -6.856 0.591
-6.853 -7.618 0.774
-6.907 -7.288 0.389
-6.852 -7.290 0.446
-6.438 -7.203 0.765
-6.851 -7.639 0.794
-6.852 -7.290 0.446
-7.571 -7.793 0.238
-6.933 -7.052 0.119
-6.690 -7.095 0.400
-6.309 -7.427 1.116
-6.851 -7.290 0.447
-6.646 -7.529 0.869
-6.133 -6.822 0.695
-6.309 -7.427 1.116
-5.559 -6.216 0.665
-7.534 -7.829 0.308
-5.410 -6.633 1.225
-6.933 -7.052 0.119
-6.361 -7.429 1.066
-6.853 -7.618 0.774
-6.361 -6.536 0.176
-5.417 -6.633 1.217
-7.136 -7.253 0.124
-6.243 -6.758 0.523
-6.708 -7.594 0.894
-6.547 -7.097 0.534
-6.846 -7.637 0.800
-6.309 -7.427 1.116
-5.688 -7.379 1.698
-6.851 -7.290 0.447
-7.254 -7.820 0.582
-6.851 -7.290 0.447
-5.782 -6.351 0.581
-6.851 -7.641 0.797
-5.553 -6.672 1.133
-6.298 -6.933 0.651
-6.497 -6.861 0.367
-5.688 -7.379 1.698
-6.547 -7.099 0.537
-7.534 -7.830 0.308
-6.483 -7.196 0.725
-6.933 -7.052 0.119
-6.852 -7.618 0.775
-6.362 -7.429 1.066
-6.917 -7.950 1.021
-6.896 -7.531 0.635
-6.887 -7.533 0.646
-6.390 -7.208 0.817
-6.688 -7.596 0.916
-7.157 -7.283 0.133
-7.232 -7.863 0.644
-6.403 -6.859 0.464
-7.125 -7.287 0.170
-6.832 -7.138 0.317
-6.887 -7.533 0.646
-6.970 -7.620 0.657
-6.100 -6.528 0.432
-6.907 -7.288 0.389
-7.571 -7.793 0.238
-5.620 -6.581 0.969
-6.981 -7.642 0.667
-6.291 -6.663 0.369
-6.387 -7.077 0.708
-6.784 -7.070 0.276
-6.308 -6.760 0.459
-7.088 -7.433 0.356
-6.851 -7.291 0.447
-6.541 -7.088 0.535
-6.012 -6.779 0.787
-6.852 -7.641 0.797
-6.709 -7.594 0.893
-6.309 -7.426 1.115
-6.309 -7.427 1.116
-6.856 -7.289 0.442
-7.534 -7.831 0.310
-6.190 -6.639 0.415
-7.097 -7.542 0.443
-7.570 -7.793 0.238
-6.849 -7.639 0.798
-6.907 -7.288 0.389
-6.308 -6.758 0.456
-6.266 -7.184 0.919
-6.852 -7.290 0.446
-6.909 -7.999 1.003
-6.550 -7.129 0.589
-6.933 -7.052 0.119
-6.852 -7.622 0.780
-6.099 -6.531 0.435
-7.157 -7.283 0.133
-6.073 -6.789 0.721
-6.855 -7.290 0.442
-6.832 -7.138 0.316
-6.099 -6.531 0.434
-8.895 -9.073 0.182
-6.933 -7.052 0.119
-5.686 -6.347 0.674
-7.570 -7.787 0.233
-6.435 -6.866 0.434
-9.523 -9.164 -0.358
-7.125 -7.287 0.170
-7.534 -7.829 0.308
-6.786 -7.070 0.274
-6.073 -6.789 0.721
-5.816 -6.669 0.867
-6.851 -7.290 0.447
-6.093 -6.496 0.405
-5.568 -6.668 1.114
-6.213 -6.868 0.671
-12.473 -13.302 0.828
-7.534 -7.830 0.308
-6.852 -7.289 0.445
-7.238 -7.862 0.636
-6.332 -6.531 0.200
-6.849 -7.639 0.797
-6.308 -6.761 0.459
-6.939 -7.727 0.809
-6.266 -7.184 0.919
-6.087 -6.782 0.700
-6.852 -7.289 0.445
-6.762 -7.283 0.530
-7.088 -7.433 0.356
-7.534 -7.829 0.308
-6.832 -7.138 0.316
-6.310 -7.427 1.116
-6.540 -7.146 0.616
-6.852 -7.620 0.776
-6.690 -7.095 0.400
-6.554 -7.130 0.580
-6.849 -7.640 0.799
-6.761 -7.279 0.528
-6.849 -7.632 0.790
-6.851 -7.291 0.448
-6.981 -7.643 0.668
-7.253 -7.820 0.582
-6.855 -7.290 0.442
-6.851 -7.291 0.447
-6.851 -7.640 0.796
-6.710 -7.595 0.893
-8.946 -9.088 0.145
-6.953 -7.283 0.337
-6.970 -7.620 0.657
-7.571 -7.793 0.238
-5.771 -7.361 1.600
-6.851 -7.290 0.446
-6.099 -6.535 0.440
-7.157 -7.283 0.133
-6.785 -7.070 0.275
-7.097 -7.542 0.443
-6.612 -7.316 0.707
-6.852 -7.290 0.446
-6.612 -7.316 0.707
-7.570 -7.792 0.238
-6.447 -7.532 1.093
-6.832 -7.137 0.316
-7.229 -7.864 0.648
-7.534 -7.829 0.308
-6.852 -7.290 0.446
-6.362 -7.429 1.066
-6.547 -7.099 0.536
-6.540 -6.988 0.461
-7.570 -7.793 0.239
-6.982 -7.643 0.667
-6.483 -7.196 0.726
-6.982 -7.643 0.667
-6.074 -6.793 0.724
-7.570 -7.794 0.240
-5.568 -6.668 1.114
-6.953 -7.283 0.337
-7.387 -7.901 0.526
-6.688 -7.596 0.916
-6.846 -7.291 0.453
-6.360 -6.536 0.177
-6.261 -7.186 0.926
-7.125 -7.288 0.171
-7.535 -7.830 0.308
-6.761 -7.283 0.531
-7.125 -7.286 0.170
-6.970 -7.619 0.656
-6.764 -7.284 0.529
-6.874 -7.891 0.886
-6.266 -7.184 0.919
-6.983 -7.643 0.666
-6.759 -7.762 0.936
-6.854 -7.615 0.770
-6.099 -6.524 0.429
-6.332 -6.531 0.200
-6.529 -7.131 0.606
-5.417 -6.633 1.217
-6.021 -6.703 0.679
-6.353 -6.532 0.179
-6.309 -7.427 1.117
-7.017 -7.134 0.127
-6.266 -7.184 0.919
-6.832 -7.138 0.316
-6.497 -6.861 0.367
-6.042 -7.113 1.068
-6.953 -7.283 0.336
-6.832 -7.138 0.316
-6.366 -7.030 0.664
-7.571 -7.792 0.238
-6.435 -6.866 0.434
-6.266 -7.184 0.919
-6.953 -7.283 0.336
-6.886 -7.533 0.647
-7.088 -7.433 0.356
-5.705 -7.278 1.581
-6.308 -7.178 0.872
-5.817 -6.673 0.871