-5.345 -6.886 1.556
-4.998 -6.478 1.493
-5.361 -6.886 1.540
-5.013 -6.479 1.479
-4.997 -6.478 1.494
-4.997 -6.478 1.494
-5.345 -6.886 1.556
-4.997 -6.478 1.494
-4.851 -6.069 1.236
-5.345 -6.886 1.556
-4.997 -6.478 1.494
-5.343 -6.806 1.489
-5.160 -6.684 1.541
-5.145 -6.502 1.375
-5.013 -6.479 1.479
-4.998 -6.478 1.494
-5.345 -6.886 1.556
-4.998 -6.478 1.494
-5.345 -6.886 1.556
-4.964 -6.243 1.297
-5.160 -6.684 1.541
-5.345 -6.886 1.556
-4.998 -6.478 1.493
-5.160 -6.684 1.541
-5.013 -6.479 1.479
-5.281 -6.958 1.691
-5.327 -7.150 1.834
-5.281 -6.958 1.691
-5.350 -7.162 1.824
-5.129 -6.502 1.392
-5.160 -6.684 1.541
-5.360 -6.885 1.539
-5.281 -6.958 1.691
-5.160 -6.684 1.541
-5.013 -6.478 1.479
-5.145 -6.502 1.375
-5.377 -6.789 1.438
-5.360 -6.886 1.540
-5.345 -6.886 1.556
-5.145 -6.502 1.375
-5.345 -6.886 1.556
-7.085 -10.155 3.080
-5.144 -6.500 1.375
-5.271 -6.958 1.702
-5.345 -6.886 1.556
-5.145 -6.501 1.374
-5.882 -7.721 1.845
-5.864 -7.730 1.864
-5.281 -6.958 1.691
-5.875 -7.749 1.880
-5.160 -6.684 1.541
-5.129 -6.502 1.392
-5.145 -6.501 1.375
-5.170 -6.584 1.430
-5.360 -6.887 1.541
-5.852 -7.649 1.806
-5.169 -6.833 1.679
-5.350 -7.162 1.823
-5.394 -6.790 1.422
-4.843 -6.129 1.305
-5.160 -6.684 1.541
-4.911 -6.785 1.889
-5.145 -6.502 1.375
-5.170 -6.584 1.430
-5.881 -7.724 1.849
-4.500 -6.524 2.039
-5.160 -6.684 1.541
-5.160 -6.684 1.541
-5.867 -7.696 1.840
-5.318 -6.858 1.566
-5.352 -6.794 1.468
-5.829 -7.620 1.795
-5.047 -6.572 1.543
-5.391 -6.810 1.444
-5.349 -6.856 1.532
-5.168 -6.684 1.533
-5.083 -6.776 1.707
-4.912 -6.782 1.886
-5.169 -6.836 1.681
-5.344 -6.800 1.481
-5.271 -6.958 1.702
-5.160 -6.684 1.541
-5.345 -6.886 1.556
-5.318 -6.820 1.529
-5.808 -7.457 1.666
-5.044 -6.570 1.545
-5.102 -6.562 1.478
-4.637 -6.535 1.923
-5.355 -6.854 1.525
-5.108 -6.602 1.512
-5.160 -6.684 1.541
-5.013 -6.478 1.478
-5.333 -6.827 1.520
-5.312 -6.899 1.614
-5.345 -6.886 1.556
-5.345 -6.886 1.556
-8.626 -10.500 1.889
-5.028 -6.548 1.540
-5.878 -7.708 1.836
-5.078 -6.635 1.573
-5.350 -7.157 1.819
-5.271 -6.958 1.702
-5.047 -6.573 1.544
-5.013 -6.479 1.479
-5.145 -6.501 1.375
-5.168 -6.684 1.533
-5.281 -6.958 1.691
-5.170 -6.584 1.430
-5.383 -6.798 1.439
-5.170 -6.584 1.430
-5.169 -6.836 1.681
-5.160 -6.684 1.541
-5.345 -6.886 1.556
-5.833 -7.560 1.734
-5.281 -6.958 1.691
-4.998 -6.478 1.493
-5.046 -6.338 1.313
-5.350 -7.162 1.824
-5.050 -6.574 1.542
-5.170 -6.584 1.430
-4.998 -6.478 1.493
-5.360 -6.886 1.540
-5.345 -6.886 1.556
-5.842 -7.704 1.877
-5.283 -6.925 1.666
-4.797 -6.732 1.943
-5.281 -6.957 1.690
-5.170 -6.584 1.430
-5.284 -6.831 1.575
-5.332 -6.843 1.538
-5.281 -6.958 1.691
-4.839 -6.715 1.888
-5.380 -7.157 1.789
-5.170 -6.584 1.430
-5.170 -6.584 1.430
-4.998 -6.478 1.493
-5.160 -6.684 1.541
-5.383 -6.805 1.446
-5.160 -6.684 1.541
-5.833 -7.606 1.783
-4.998 -6.478 1.493
-5.116 -6.696 1.594
-5.360 -6.886 1.540
-5.390 -6.811 1.446
-4.998 -6.478 1.493
-4.761 -6.556 1.806
-5.344 -6.886 1.555
-5.160 -6.684 1.541
-5.013 -6.479 1.479
-5.116 -6.696 1.594
-5.160 -6.684 1.541
-4.762 -6.541 1.790
-4.998 -6.478 1.493
-5.132 -6.635 1.518
-5.247 -6.974 1.751
-4.200 -5.637 1.458
-4.998 -6.478 1.494
-4.839 -6.726 1.899
-5.160 -6.684 1.541
-5.564 -7.553 2.005
-5.352 -6.810 1.483
-5.160 -6.684 1.541
-5.381 -7.161 1.793
-4.998 -6.478 1.494
-3.747 -4.908 1.187
-5.385 -6.801 1.440
-5.160 -6.684 1.541
-5.160 -6.684 1.541
-5.344 -6.876 1.547
-5.047 -6.574 1.545
-5.160 -6.684 1.541
-4.911 -6.335 1.438
-5.271 -6.958 1.702
-5.344 -6.886 1.556
-5.360 -6.886 1.540
-5.345 -6.886 1.556
-5.345 -6.886 1.556
-5.160 -6.684 1.541
-5.047 -6.572 1.543
-5.152 -6.835 1.697
-5.160 -6.684 1.541
-5.031 -6.455 1.443
-5.122 -6.693 1.585
-5.116 -6.695 1.594
-5.380 -7.163 1.795
-5.160 -6.684 1.541
-4.998 -6.478 1.493
-5.345 -6.886 1.556
-5.359 -6.902 1.567
-5.160 -6.685 1.541
-5.360 -6.886 1.540
-5.168 -6.684 1.533
-5.116 -6.699 1.597
-3.841 -4.465 0.649
-5.116 -6.695 1.594
-5.391 -6.816 1.451
-8.623 -10.491 1.884
-5.146 -6.502 1.374
-4.012 -5.642 1.648
-5.243 -6.733 1.516
-4.272 -5.637 1.384
-5.809 -7.556 1.764
-5.382 -6.850 1.493
-4.998 -6.478 1.493
-5.345 -6.886 1.555
-5.271 -6.959 1.702
-5.160 -6.684 1.541
-5.171 -6.584 1.430
-5.048 -6.574 1.544
-5.145 -6.499 1.373
-4.846 -6.075 1.247
-5.146 -6.502 1.375
-4.838 -6.081 1.260
-4.754 -6.643 1.905
-4.056 -6.159 2.105
-5.360 -6.886 1.540
-5.146 -6.501 1.375
-3.811 -4.997 1.208
-5.160 -6.684 1.541
-4.110 -6.103 2.017
-5.345 -6.886 1.555
-5.122 -6.695 1.587
-5.122 -6.696 1.587
-5.271 -6.958 1.701
-5.168 -6.684 1.532
-5.271 -6.958 1.701
-4.974 -6.499 1.538
-5.361 -6.886 1.540
-5.271 -6.958 1.701
-4.840 -6.722 1.894
-4.590 -6.111 1.541
-5.334 -6.881 1.573
-5.361 -6.886 1.540
-5.348 -7.152 1.814
-5.345 -6.886 1.555
-5.145 -6.822 1.691
-5.180 -6.583 1.419
-5.830 -7.489 1.657
-5.053 -6.626 1.589
-5.045 -6.477 1.453
-4.912 -6.788 1.891
-5.271 -6.958 1.701
-5.152 -6.833 1.697
-5.350 -7.161 1.823
-4.662 -6.393 1.745
-5.116 -6.695 1.593
-5.169 -6.584 1.431
-5.153 -6.833 1.696
-5.879 -7.720 1.848
-5.169 -6.584 1.431
-5.176 -6.727 1.574
-4.678 -6.269 1.606
-5.063 -6.394 1.315
-5.170 -6.832 1.677
-4.840 -6.725 1.898
-5.122 -6.696 1.589
-5.047 -6.589 1.559
-4.910 -6.769 1.873
-4.675 -6.430 1.760
-5.180 -6.583 1.420
-4.911 -6.782 1.886
-4.998 -6.478 1.493
-5.360 -6.886 1.540
-5.116 -6.695 1.594
-4.710 -5.964 1.272
-5.271 -6.958 1.702
-7.796 -10.000 2.211
-5.047 -6.570 1.542
-5.362 -6.897 1.560
-5.345 -6.886 1.556
-5.345 -6.886 1.556
-5.360 -6.886 1.540
-5.116 -6.696 1.594
-5.170 -6.584 1.430
-5.180 -6.583 1.420
-4.837 -5.994 1.167
-4.268 -5.850 1.587
-5.170 -6.584 1.430
-5.271 -6.958 1.701
-5.882 -7.720 1.844
-4.762 -6.550 1.799
-5.360 -6.886 1.540
-5.223 -6.877 1.674
-5.048 -6.576 1.547
-5.132 -6.490 1.377
-4.762 -6.543 1.793
-5.345 -6.886 1.556
-4.233 -5.535 1.322
-5.171 -6.584 1.430
-5.282 -6.958 1.690
-5.171 -6.584 1.430
-5.159 -6.502 1.362
-5.350 -6.830 1.506
-4.572 -6.552 2.005
-5.282 -6.958 1.691
-5.380 -6.846 1.491
-5.340 -6.913 1.597
-5.116 -6.695 1.594
-4.254 -5.596 1.361
-4.955 -6.253 1.315
-4.762 -6.544 1.794
-4.852 -6.075 1.241
-5.180 -6.583 1.419
-5.350 -7.161 1.824
-5.282 -6.958 1.690
-5.345 -6.886 1.555
-5.271 -6.957 1.700
-5.180 -6.583 1.419
-5.013 -6.478 1.478
-5.171 -6.584 1.430
-4.815 -6.711 1.908
-5.180 -6.583 1.420
-5.282 -6.958 1.690
-4.762 -6.545 1.795
-5.337 -6.887 1.577
-5.361 -6.886 1.540
-4.762 -6.543 1.793
-5.351 -6.805 1.479
-5.106 -6.590 1.503
-5.386 -6.819 1.459
-5.269 -6.966 1.712
-5.048 -6.574 1.544
-5.048 -6.573 1.543
-5.271 -6.958 1.701
-5.099 -6.797 1.704
-5.116 -6.695 1.594
-3.563 -4.978 1.439
-5.180 -6.584 1.420
-5.171 -6.584 1.430
-5.048 -6.573 1.543
-4.762 -6.535 1.786
-5.267 -6.929 1.678
-5.171 -6.584 1.430
-5.169 -6.836 1.681
-5.192 -6.793 1.617
-5.371 -6.822 1.476
-5.171 -6.584 1.430
-5.271 -6.958 1.701
-5.352 -6.807 1.479
-5.180 -6.584 1.420
-4.777 -6.543 1.779
-5.171 -6.584 1.429
-5.129 -6.501 1.391
-5.888 -7.718 1.836
-5.106 -6.616 1.527
-5.307 -6.807 1.527
-5.122 -6.695 1.587
-5.045 -6.576 1.548
-8.647 -10.757 2.106
-5.171 -6.584 1.430
-4.638 -6.533 1.920
-4.738 -6.268 1.540
-5.109 -6.604 1.513
-4.995 -6.793 1.814
-7.971 -10.382 2.388
-4.762 -6.541 1.791
-5.116 -6.696 1.594
-5.116 -6.695 1.594
-3.564 -5.283 1.735
-5.171 -6.584 1.430
-4.989 -6.487 1.510
-4.747 -6.593 1.856
-4.864 -6.136 1.291
-5.116 -6.695 1.594
-4.790 -6.759 1.979
-5.171 -6.584 1.430
-5.146 -6.501 1.374
-5.180 -6.583 1.419
-5.802 -7.537 1.752
-5.171 -6.584 1.430
-5.067 -6.575 1.526
-4.998 -6.479 1.493
-4.700 -6.161 1.478
-5.171 -6.584 1.430
-4.902 -6.730 1.844
-5.350 -7.161 1.823
-3.994 -5.707 1.695
-5.116 -6.695 1.594
-5.271 -6.958 1.701
-5.329 -6.887 1.585
-5.372 -6.813 1.466
-5.171 -6.584 1.430
-5.361 -6.886 1.540
-5.180 -6.584 1.420
-5.282 -6.957 1.689
-5.282 -6.958 1.690
-5.115 -6.694 1.593
-5.125 -6.521 1.411
-5.343 -6.826 1.508
-5.058 -6.402 1.364
-5.051 -6.576 1.544
-5.116 -6.695 1.594
-5.391 -6.801 1.436
-5.109 -6.606 1.515
-4.662 -6.393 1.745
-4.639 -5.705 1.087
-3.841 -4.448 0.631
-5.175 -6.572 1.412
-5.315 -6.845 1.556
-4.791 -6.709 1.931
-5.752 -7.504 1.767
-5.116 -6.696 1.594
-3.841 -4.442 0.625
-5.872 -7.737 1.871
-4.192 -5.688 1.517
-5.170 -6.583 1.429
-5.271 -6.958 1.701
-5.373 -6.801 1.453
-4.196 -5.610 1.435
-5.171 -6.584 1.430
-5.269 -6.811 1.563
-3.914 -5.021 1.128
-4.833 -6.719 1.898
-5.113 -6.681 1.584
-5.171 -6.584 1.430
-5.109 -6.600 1.509
-5.040 -6.466 1.446
-5.034 -7.055 2.041
-5.180 -6.583 1.419
-3.884 -6.369 2.502
-3.712 -5.409 1.719
-5.573 -7.271 1.678
-4.761 -6.527 1.777
-5.853 -7.694 1.849
-5.091 -6.555 1.482
-4.913 -6.783 1.886
-5.171 -6.584 1.430
-5.389 -6.821 1.456
-5.122 -6.695 1.587
-4.815 -6.717 1.914
-4.196 -5.612 1.436
-5.180 -6.583 1.419
-5.299 -6.886 1.599
-5.180 -6.583 1.419
-5.171 -6.584 1.430
-5.111 -6.695 1.599
-5.806 -7.525 1.730
-5.730 -7.463 1.724
-4.998 -6.478 1.493
-4.678 -6.217 1.554
-5.274 -6.955 1.694
-8.314 -10.344 2.039
-5.180 -6.583 1.419
-8.192 -10.198 2.017
-4.804 -6.724 1.934
-3.914 -5.022 1.129
-5.094 -6.670 1.591
-5.170 -6.584 1.430
-5.116 -6.696 1.594
-6.671 -9.064 2.406
-5.254 -6.872 1.637
-5.394 -6.795 1.426
-5.021 -6.686 1.681
-5.116 -6.695 1.593
-5.116 -6.695 1.594
-5.350 -7.165 1.828
-5.116 -6.696 1.594
-5.373 -6.813 1.465
-5.048 -6.573 1.544
-5.173 -6.590 1.435
-5.109 -6.597 1.507
-4.815 -6.707 1.905
-5.785 -7.535 1.761
-4.890 -6.852 1.979
-4.260 -5.644 1.386
-3.914 -5.021 1.128
-4.825 -6.118 1.312
-4.300 -6.616 2.339
-4.833 -6.719 1.899
-5.345 -6.886 1.555
-5.159 -6.683 1.540
-5.171 -6.584 1.430
-5.045 -6.571 1.544
-5.171 -6.584 1.430
-4.927 -6.774 1.861
-4.928 -6.778 1.865
-5.360 -6.890 1.555
-5.170 -6.582 1.429
-4.495 -5.773 1.295
-5.361 -6.885 1.539
-5.047 -6.573 1.544
-5.171 -6.584 1.430
-5.109 -6.601 1.510
-5.366 -6.888 1.547
-5.171 -6.584 1.430
-4.833 -6.718 1.897
-4.192 -5.612 1.441
-4.171 -5.612 1.461
-5.169 -6.584 1.431
-5.156 -6.569 1.430
-4.252 -5.618 1.385
-4.662 -6.394 1.746
-4.877 -6.258 1.391
-5.390 -6.803 1.439
-5.312 -6.846 1.562
-5.183 -6.845 1.677
-4.762 -6.545 1.795
-8.093 -9.927 1.810
-5.102 -6.563 1.479
-3.558 -4.945 1.411
-5.314 -6.798 1.510
-4.843 -6.129 1.305
-5.180 -6.583 1.419
-4.830 -6.740 1.922
-4.809 -6.708 1.905
-5.271 -6.958 1.701
-5.171 -6.584 1.430
-4.175 -5.605 1.450
-5.160 -6.684 1.540
-4.769 -6.179 1.428
-3.914 -5.022 1.129
-4.740 -6.582 1.852
-4.961 -6.289 1.337
-5.345 -6.886 1.555
-5.345 -6.886 1.555
-5.890 -7.719 1.834
-5.180 -6.582 1.418
-5.669 -7.276 1.626
-3.914 -5.021 1.128
-4.061 -6.216 2.178
-5.345 -6.886 1.555
-3.865 -5.242 1.379
-5.116 -6.695 1.594
-5.271 -6.958 1.701
-5.116 -6.695 1.594
-5.271 -6.958 1.701
-4.783 -6.701 1.929
-4.970 -6.533 1.572
-5.361 -6.886 1.540
-5.345 -6.886 1.555
-5.305 -6.869 1.592
-4.982 -6.406 1.442
-5.109 -6.601 1.510
-8.438 -10.470 2.050
-5.111 -6.729 1.636
-5.271 -6.958 1.701
-4.727 -6.576 1.870
-5.271 -6.958 1.701
-4.762 -6.545 1.795
-3.544 -5.118 1.593
-5.345 -6.886 1.555
-5.116 -6.695 1.594
-5.271 -6.954 1.697
-4.660 -6.430 1.775
-5.129 -6.502 1.392
-5.543 -7.550 2.022
-5.849 -7.702 1.852
-3.684 -4.912 1.254
-5.345 -6.886 1.555
-3.504 -5.068 1.591
-4.833 -6.718 1.898
-5.271 -6.958 1.702
-4.815 -6.718 1.915
-5.271 -6.958 1.701
-5.129 -6.502 1.391
-4.681 -6.269 1.603
-4.215 -6.116 1.918
-5.159 -6.688 1.545
-5.345 -6.886 1.555
-5.116 -6.695 1.594
-4.729 -6.241 1.528
-5.152 -6.834 1.697
-5.180 -6.583 1.419
-5.079 -6.658 1.597
-3.748 -4.909 1.186
-3.914 -5.020 1.127
-4.571 -6.524 1.977
-5.361 -6.886 1.540
-5.271 -6.958 1.701
-5.160 -6.684 1.541
-5.267 -6.951 1.699
-6.470 -9.208 2.745
-5.097 -6.463 1.379
-5.716 -7.419 1.717
-4.662 -6.393 1.745
-4.680 -6.295 1.631
-5.890 -7.719 1.835
-4.833 -6.717 1.896
-5.369 -6.832 1.488
-5.271 -6.958 1.701
-5.271 -6.957 1.701
-5.104 -6.494 1.398
-4.474 -6.080 1.610
-7.640 -10.231 2.589
-5.171 -6.584 1.430
-5.271 -6.958 1.701
-5.180 -6.583 1.419
-4.577 -6.587 2.024
-3.749 -4.899 1.175
-5.271 -6.958 1.701
-5.230 -6.938 1.733
-5.116 -6.695 1.594
-5.271 -6.958 1.701
-5.116 -6.693 1.592
-4.735 -5.883 1.166
-5.271 -6.959 1.701
-5.359 -6.840 1.504
-5.116 -6.696 1.595
-5.393 -6.799 1.431
-5.270 -6.960 1.703
-5.116 -6.695 1.594
-3.215 -4.535 1.345
-4.998 -6.478 1.493
-5.116 -6.696 1.595
-5.345 -6.886 1.555
-3.748 -4.907 1.185
-5.064 -6.657 1.603
-5.131 -6.502 1.396
-4.662 -6.394 1.746
-5.171 -6.584 1.430
-5.116 -6.696 1.594
-5.171 -6.584 1.430
-3.669 -5.520 1.873
-5.271 -6.958 1.701
-5.391 -6.799 1.434
-5.354 -6.900 1.569
-5.107 -6.599 1.511
-4.757 -6.577 1.830
-4.812 -6.690 1.891
-3.684 -4.918 1.260
-5.361 -6.903 1.566
-5.169 -6.584 1.431
-6.863 -9.372 2.513
-5.271 -6.958 1.701
-4.703 -6.372 1.691
-5.116 -6.695 1.594
-5.271 -6.958 1.701
-5.233 -6.855 1.643
-5.180 -6.583 1.419
-5.266 -6.956 1.705
-5.160 -6.684 1.541
-5.152 -6.834 1.697
-4.662 -6.393 1.746
-3.771 -4.945 1.202
-4.896 -6.878 1.986
-5.093 -6.541 1.464
-4.762 -6.549 1.799
-4.986 -6.591 1.619
-4.815 -6.716 1.913
-5.271 -6.960 1.702
-4.681 -6.273 1.607
-4.830 -6.654 1.804
-5.116 -6.696 1.594
-4.814 -6.715 1.912
-4.591 -6.527 1.950
-5.171 -6.584 1.430
-5.171 -6.584 1.430
-5.171 -6.584 1.430
-3.748 -4.908 1.186
-5.171 -6.584 1.430
-3.859 -5.143 1.295
-5.160 -6.684 1.541
-5.047 -6.663 1.630
-4.846 -6.089 1.260
-5.379 -6.825 1.471
-3.839 -5.337 1.516
-4.312 -6.283 1.966
-5.159 -6.501 1.361
-4.940 -6.350 1.412
-5.281 -6.953 1.685
-5.271 -6.961 1.704
-5.082 -6.704 1.634
-5.371 -7.162 1.804
-5.080 -6.616 1.553
-3.747 -4.907 1.185
-5.104 -6.604 1.518
-5.271 -6.958 1.701
-5.099 -6.563 1.480
-5.271 -6.954 1.698
-5.171 -6.584 1.430
-5.260 -6.941 1.698
-5.157 -6.687 1.547
-5.345 -6.886 1.555
-5.171 -6.584 1.430
-3.670 -5.533 1.884
-3.188 -4.223 1.061
-5.322 -6.904 1.608
-5.032 -6.383 1.372
-5.345 -6.886 1.555
-4.849 -6.245 1.395
-5.170 -6.584 1.430
-5.116 -6.697 1.595
-4.826 -6.073 1.263
-5.282 -6.958 1.690
-5.269 -6.951 1.697
-3.683 -4.918 1.261
-3.747 -4.905 1.184
-4.839 -6.075 1.254
-5.048 -6.574 1.544
-5.164 -6.584 1.435
-4.998 -6.478 1.492
-5.180 -6.583 1.420
-5.129 -6.501 1.390
-3.735 -4.476 0.767
-5.116 -6.695 1.594
-5.282 -6.958 1.690
-4.927 -6.531 1.615
-4.839 -6.073 1.252
-5.170 -6.584 1.430
-5.170 -6.584 1.430
-4.517 -5.640 1.138
-5.116 -6.696 1.594
-5.099 -6.702 1.612
-3.719 -5.024 1.326
-5.116 -6.695 1.594
-5.361 -6.886 1.540
-5.180 -6.583 1.419
-5.171 -6.584 1.430
-4.826 -6.098 1.292
-5.115 -6.689 1.589
-5.192 -6.796 1.621
-5.368 -6.867 1.522
-5.116 -6.697 1.596
-3.558 -4.943 1.410
-5.171 -6.584 1.430
-5.902 -7.709 1.814
-3.914 -5.270 1.363
-5.171 -6.584 1.429
-5.393 -6.798 1.430
-5.855 -7.694 1.846
-3.748 -4.905 1.182
-5.171 -6.584 1.430
-4.838 -6.115 1.294
-5.271 -6.958 1.701
-5.170 -6.583 1.428
-5.146 -6.502 1.375
-5.099 -6.531 1.450
-4.881 -6.786 1.921
-4.839 -6.078 1.257
-4.903 -6.799 1.913
-3.770 -5.095 1.335
-5.169 -6.585 1.432
-5.116 -6.695 1.593
-4.956 -6.525 1.584
-3.261 -4.134 0.899
-3.248 -4.158 0.935
-5.157 -6.590 1.446
-4.198 -5.793 1.616
-3.716 -5.012 1.318
-4.051 -6.038 2.000
-5.376 -6.886 1.525
-3.730 -5.167 1.462
-4.364 -6.430 2.091
-5.122 -6.695 1.587
-5.116 -6.696 1.594
-5.344 -6.886 1.556
-5.270 -6.960 1.705
-5.260 -6.963 1.715
-5.271 -6.960 1.704
-5.129 -6.502 1.392
-5.881 -7.723 1.848
-3.740 -4.925 1.211
-5.107 -6.597 1.509
-3.945 -5.257 1.329
-4.168 -5.740 1.592
-5.281 -6.957 1.690
-4.825 -6.104 1.298
-3.718 -5.030 1.333
-4.041 -5.719 1.642
-4.865 -6.076 1.227
-5.180 -6.583 1.420
-5.116 -6.695 1.594
-5.109 -6.600 1.510
-5.271 -6.958 1.702
-3.745 -4.910 1.190
-5.145 -6.502 1.375
-4.838 -6.075 1.255
-5.157 -6.577 1.439
-5.116 -6.696 1.594
-7.410 -10.389 2.845
-3.747 -4.901 1.179
-5.108 -6.601 1.511
-3.726 -4.479 0.779
-5.116 -6.696 1.594
-5.085 -6.502 1.438
-3.748 -4.896 1.174
-3.824 -6.104 2.303
-3.332 -5.523 2.181
-9.289 -10.608 1.301
-9.622 -11.036 1.397
-10.188 -10.206 0.030
-9.513 -10.489 0.954
-9.620 -11.036 1.399
-9.765 -11.026 1.244
-9.620 -11.037 1.399
-9.887 -10.229 0.353
-9.562 -11.045 1.465
-9.765 -11.026 1.244
-5.537 -6.812 1.299
-9.887 -10.227 0.351
-9.765 -11.027 1.244
-9.886 -10.220 0.345
-9.560 -10.438 0.893
-9.887 -10.229 0.352
-5.728 -7.545 1.833
-9.887 -10.229 0.352
-9.765 -11.027 1.244
-9.887 -10.229 0.352
-10.188 -10.207 0.031
-9.765 -11.027 1.244
-9.560 -10.439 0.894
-9.765 -11.027 1.244
-9.887 -10.228 0.352
-9.887 -10.228 0.352
-10.188 -10.206 0.030
-5.538 -6.818 1.305
-9.232 -9.856 0.605
-9.560 -10.439 0.893
-10.188 -10.207 0.031
-10.731 -10.723 -0.014
-10.202 -10.204 0.015
-5.712 -7.541 1.844
-9.243 -9.889 0.627
-9.901 -10.230 0.340
-9.760 -11.040 1.264
-5.514 -7.163 1.661
-5.729 -7.544 1.832
-9.561 -10.442 0.895
-10.202 -10.204 0.015
-9.326 -10.475 1.165
-5.151 -6.856 1.722
-9.561 -10.444 0.897
-8.726 -10.671 1.924
-8.340 -9.671 1.306
-9.901 -10.220 0.330
-5.536 -6.828 1.317
-8.204 -11.059 2.839
-5.729 -7.545 1.832
-5.873 -7.740 1.875
-9.557 -11.058 1.483
-5.723 -7.526 1.820
-9.557 -11.057 1.483
-7.075 -9.944 2.879
-9.901 -10.225 0.335
-9.321 -10.502 1.195
-10.202 -10.204 0.015
-9.560 -10.430 0.884
-9.760 -11.040 1.264
-5.879 -7.717 1.844
-9.901 -10.225 0.335
-5.879 -7.715 1.841
-6.053 -7.713 1.666
-9.146 -11.027 1.863
-9.561 -10.443 0.896
-6.054 -7.721 1.673
-10.202 -10.204 0.014
-5.877 -7.728 1.854
-6.054 -7.723 1.675
-5.546 -7.545 2.015
-5.879 -7.715 1.841
-5.152 -6.832 1.696
-10.731 -10.723 -0.014
-9.146 -11.025 1.862
-5.729 -7.545 1.833
-5.538 -6.816 1.303
-5.879 -7.715 1.842
-5.538 -6.815 1.303
-5.725 -7.528 1.820
-8.108 -10.786 2.667
-5.359 -6.794 1.460
-5.879 -7.714 1.841
-5.514 -7.159 1.658
-8.172 -11.077 2.889
-5.879 -7.716 1.842
-9.760 -11.040 1.263
-5.514 -7.159 1.657
-5.344 -7.159 1.827
-5.153 -6.853 1.716
-5.344 -7.160 1.828
-5.355 -6.821 1.492
-5.879 -7.716 1.843
-5.896 -7.453 1.567
-5.344 -7.161 1.829
-5.538 -6.816 1.303
-5.538 -6.816 1.303
-10.202 -10.205 0.015
-5.550 -6.811 1.286
-5.344 -7.159 1.828
-5.514 -7.158 1.657
-5.728 -7.545 1.833
-5.344 -7.159 1.828
-5.534 -6.816 1.306
-5.514 -7.158 1.657
-9.536 -10.831 1.286
-6.098 -7.727 1.636
-5.534 -6.820 1.310
-5.514 -7.158 1.657
-5.344 -7.159 1.827
-5.054 -6.575 1.539
-5.054 -6.572 1.537
-5.344 -7.159 1.827
-4.909 -6.782 1.888
-6.054 -7.722 1.675
-9.901 -10.225 0.335
-8.663 -9.871 1.192
-5.514 -7.158 1.657
-6.054 -7.723 1.676
-9.619 -10.446 0.842
-5.344 -7.159 1.827
-5.344 -7.159 1.827
-5.344 -7.159 1.827
-5.878 -7.713 1.841
-5.535 -6.817 1.307
-5.720 -7.545 1.841
-5.879 -7.714 1.841
-9.561 -10.441 0.895
-5.344 -7.159 1.828
-9.561 -10.442 0.895
-6.053 -7.727 1.680
-5.545 -7.545 2.016
-4.909 -6.778 1.884
-9.158 -10.392 1.214
-9.536 -10.831 1.287
-5.054 -6.572 1.536
-5.535 -6.817 1.307
-5.514 -7.158 1.657
-8.583 -10.291 1.719
-5.545 -7.544 2.015
-5.514 -7.158 1.657
-5.344 -7.159 1.828
-5.211 -6.615 1.421
-5.535 -6.816 1.306
-9.550 -10.476 0.943
-5.530 -6.826 1.320
-9.737 -10.449 0.726
-5.211 -6.615 1.421
-6.054 -7.721 1.675
-5.535 -6.816 1.306
-8.150 -11.073 2.906
-8.592 -9.893 1.284
-5.535 -6.818 1.308
-9.536 -10.831 1.287
-9.901 -10.225 0.335
-5.857 -7.619 1.767
-6.054 -7.722 1.675
-5.877 -7.724 1.850
-6.731 -9.970 3.185
-9.531 -10.486 0.967
-5.081 -6.782 1.714
-5.355 -6.817 1.487
-5.728 -7.548 1.837
-4.819 -6.717 1.910
-5.535 -6.818 1.308
-8.591 -9.891 1.283
-6.054 -7.722 1.675
-5.527 -6.812 1.309
-5.344 -7.159 1.827
-5.344 -7.160 1.828
-5.514 -7.158 1.657
-7.033 -9.983 2.954
-5.344 -7.159 1.828
-5.726 -7.559 1.850
-6.054 -7.723 1.676
-6.054 -7.723 1.675
-5.878 -7.713 1.840
-5.151 -6.848 1.713
-5.344 -7.159 1.827
-6.465 -9.780 3.315
-5.054 -6.575 1.540
-5.151 -6.848 1.714
-5.871 -7.692 1.826
-6.079 -7.722 1.649
-4.909 -6.789 1.894
-5.344 -7.158 1.827
-5.081 -6.783 1.716
-6.098 -7.728 1.637
-9.462 -10.561 1.113
-5.373 -6.806 1.457
-6.054 -7.724 1.677
-5.869 -7.726 1.860
-9.901 -10.226 0.336
-5.198 -6.837 1.657
-6.036 -7.710 1.677
-5.351 -7.160 1.821
-9.562 -10.429 0.880
-6.052 -7.722 1.676
-4.910 -6.775 1.880
-5.345 -7.159 1.826
-5.877 -7.714 1.843
-9.562 -10.437 0.889
-5.537 -6.813 1.301
-5.537 -6.815 1.302
-9.513 -10.828 1.307
-5.550 -6.814 1.288
-5.081 -6.788 1.722
-5.877 -7.715 1.844
-4.909 -6.788 1.893
-5.422 -7.419 2.008
-5.515 -7.158 1.656
-5.544 -7.546 2.017
-5.345 -7.160 1.827
-5.544 -7.537 2.009
-4.897 -6.889 2.013
-5.199 -6.838 1.657
-5.345 -7.159 1.826
-5.210 -6.615 1.423
-5.535 -6.817 1.307
-4.817 -6.701 1.897
-5.369 -6.813 1.467
-5.052 -6.570 1.536
-5.345 -7.159 1.827
-6.048 -7.723 1.678
-5.376 -6.794 1.444
-5.830 -7.604 1.783
-5.356 -6.810 1.479
-5.095 -6.451 1.369
-5.530 -6.850 1.347
-5.198 -6.838 1.657
-6.046 -7.701 1.657
-5.345 -7.159 1.826
-5.869 -7.734 1.872
-5.848 -7.524 1.676
-5.877 -7.717 1.846
-5.374 -6.801 1.453
-6.053 -7.722 1.676
-4.909 -6.780 1.886
-5.053 -6.572 1.538
-5.053 -6.572 1.537
-5.535 -6.817 1.306
-4.841 -6.709 1.880
-5.535 -6.817 1.307
-5.053 -6.572 1.538
-5.150 -6.845 1.712
-5.535 -6.818 1.308
-5.548 -6.818 1.295
-5.877 -7.716 1.844
-5.525 -6.781 1.281
-5.345 -7.159 1.827
-5.557 -7.546 2.005
-5.052 -6.575 1.541
-5.958 -7.512 1.555
-5.151 -6.849 1.715
-5.353 -6.785 1.457
-5.557 -7.546 2.005
-9.513 -10.829 1.308
-5.535 -6.818 1.308
-4.909 -6.783 1.890
-5.877 -7.707 1.835
-5.820 -7.508 1.693
-5.535 -6.818 1.308
-5.535 -6.817 1.307
-5.534 -6.819 1.310
-4.909 -6.787 1.894
-5.524 -6.829 1.329
-9.579 -10.469 0.900
-5.877 -7.715 1.843
-5.858 -7.698 1.847
-5.864 -7.680 1.820
-6.051 -7.730 1.686
-5.876 -7.730 1.860
-5.366 -7.161 1.808
-4.908 -6.777 1.885
-5.354 -6.793 1.463
-5.877 -7.711 1.840
-5.080 -6.778 1.711
-5.303 -6.858 1.580
-5.861 -7.719 1.870
-5.851 -7.686 1.832
-4.909 -6.782 1.889
-6.143 -8.452 2.305
-4.584 -6.538 1.979
-5.345 -7.160 1.827
-5.535 -6.816 1.306
-5.054 -6.573 1.537
-5.549 -6.815 1.291
-4.818 -6.710 1.905
-5.052 -6.572 1.538
-6.052 -7.724 1.678
-5.866 -7.706 1.842
-5.877 -7.714 1.843
-5.373 -6.814 1.465
-5.874 -7.687 1.818
-5.151 -6.848 1.714
-5.877 -7.713 1.841
-5.535 -6.818 1.308
-5.874 -7.711 1.843
-4.907 -6.763 1.871
-5.529 -6.791 1.286
-4.908 -6.779 1.887
-6.052 -7.719 1.673
-5.148 -6.501 1.373
-5.061 -6.771 1.725
-5.344 -7.151 1.819
-5.877 -7.601 1.739
-5.365 -6.816 1.477
-9.559 -10.441 0.897
-5.535 -6.816 1.305
-6.052 -7.723 1.678
-5.147 -6.502 1.374
-5.345 -7.159 1.827
-4.909 -6.776 1.882
-4.818 -6.714 1.908
-5.345 -7.160 1.827
-6.052 -7.723 1.677
-6.051 -7.722 1.676
-5.094 -6.598 1.523
-5.087 -6.689 1.617
-5.869 -7.698 1.840
-5.877 -7.715 1.843
-5.054 -6.573 1.538
-5.877 -7.713 1.841
-5.868 -7.695 1.832
-5.877 -7.719 1.847
-5.054 -6.573 1.538
-5.888 -7.679 1.800
-6.007 -7.609 1.611
-5.877 -7.715 1.842
-4.907 -6.780 1.889
-6.837 -9.952 3.098
-5.877 -7.710 1.838
-5.045 -6.756 1.723
-5.837 -7.568 1.735
-6.005 -7.608 1.613
-5.345 -7.159 1.827
-5.896 -7.716 1.825
-5.535 -6.818 1.308
-5.873 -7.728 1.861
-5.345 -7.159 1.826
-5.052 -6.572 1.538
-5.068 -6.796 1.741
-5.128 -6.469 1.359
-5.535 -6.819 1.309
-5.341 -7.175 1.846
-5.342 -7.148 1.817
-5.490 -6.883 1.418
-8.834 -10.361 1.528
-5.535 -6.818 1.308
-5.535 -6.813 1.304
-5.535 -6.817 1.307
-5.865 -7.717 1.859
-8.565 -10.287 1.731
-6.017 -7.630 1.625
-5.052 -6.572 1.538
-8.646 -10.461 1.831
-5.151 -6.848 1.714
-7.310 -9.770 2.448
-5.052 -6.572 1.538
-5.943 -7.480 1.541
-5.877 -7.711 1.840
-5.790 -7.562 1.781
-5.871 -7.731 1.867
-5.822 -7.605 1.788
-5.877 -7.716 1.845
-5.875 -7.725 1.855
-4.909 -6.782 1.888
-5.052 -6.562 1.528
-5.374 -6.812 1.464
-5.376 -6.790 1.440
-5.529 -6.787 1.282
-5.487 -6.908 1.447
-5.875 -7.713 1.843
-4.704 -6.606 1.911
-5.052 -6.572 1.538
-4.818 -6.722 1.917
-6.011 -7.602 1.595
-5.299 -6.825 1.551
-5.054 -6.573 1.537
-5.375 -6.793 1.444
-5.505 -6.854 1.375
-5.151 -6.851 1.717
-5.052 -6.572 1.538
-5.535 -6.817 1.307
-5.080 -6.784 1.717
-5.727 -7.545 1.834
-5.150 -6.845 1.712
-5.895 -7.712 1.823
-5.895 -7.724 1.837
-4.682 -6.274 1.607
-4.909 -6.783 1.890
-5.338 -6.842 1.530
-8.646 -10.458 1.828
-5.507 -6.835 1.354
-5.934 -7.462 1.542
-5.535 -6.818 1.308
-4.584 -6.541 1.981
-5.393 -6.815 1.447
-5.077 -6.773 1.709
-6.025 -7.739 1.722
-5.855 -7.671 1.823
-5.855 -7.542 1.690
-5.053 -6.573 1.538
-5.503 -6.843 1.365
-5.053 -6.573 1.539
-4.762 -6.740 1.990
-5.355 -6.811 1.481
-5.806 -7.569 1.767
-5.053 -6.572 1.538
-5.053 -6.573 1.538
-5.053 -6.573 1.538
-5.053 -6.574 1.540
-8.622 -10.294 1.682
-5.856 -7.544 1.695
-4.909 -6.780 1.887
-5.533 -6.813 1.304
-6.003 -7.606 1.606
-6.166 -8.663 2.502
-4.909 -6.783 1.889
-5.962 -7.507 1.560
-5.052 -6.572 1.538
-5.052 -6.571 1.537
-5.052 -6.572 1.538
-5.052 -6.572 1.538
-5.852 -7.597 1.750
-5.355 -6.808 1.478
-5.968 -7.497 1.543
-5.052 -6.572 1.538
-5.862 -7.728 1.873
-5.877 -7.714 1.843
-6.015 -7.606 1.600
-4.584 -6.545 1.986
-5.804 -8.220 2.436
-5.877 -7.717 1.845
-5.896 -7.714 1.824
-4.818 -6.715 1.909
-5.783 -7.512 1.741
-4.913 -6.783 1.885
-5.879 -7.722 1.848
-5.881 -7.719 1.844
-4.515 -6.547 2.057
-9.620 -10.439 0.834
-5.148 -6.502 1.372
-5.088 -6.358 1.282
-9.620 -10.441 0.836
-5.875 -7.723 1.853
-5.755 -7.467 1.721
-5.053 -6.571 1.536
-5.354 -6.829 1.500
-5.282 -6.872 1.617
-5.356 -6.784 1.453
-8.578 -10.452 1.888
-5.781 -7.491 1.723
-5.523 -6.783 1.284
-5.875 -7.700 1.829
-5.853 -7.647 1.797
-6.053 -7.722 1.676
-5.375 -6.787 1.439
-5.878 -7.713 1.841
-5.053 -6.572 1.537
-5.053 -6.572 1.537
-4.818 -6.717 1.911
-5.536 -6.815 1.304
-5.373 -6.819 1.471
-4.819 -6.714 1.908
-5.857 -7.629 1.773
-4.688 -6.672 1.992
-5.054 -6.574 1.538
-5.377 -6.789 1.437
-5.356 -6.810 1.479
-6.047 -7.736 1.691
-4.910 -6.781 1.887
-4.826 -6.718 1.904
-4.680 -6.325 1.658
-5.833 -7.600 1.778
-5.878 -7.714 1.842
-5.877 -7.714 1.843
-5.052 -6.572 1.538
-4.826 -6.718 1.904
-5.570 -6.809 1.265
-5.076 -6.754 1.688
-4.818 -6.716 1.910
-5.052 -6.572 1.538
-4.818 -6.715 1.909
-8.558 -10.509 1.967
-5.376 -6.791 1.440
-5.298 -6.867 1.597
-4.585 -6.536 1.976
-5.876 -7.721 1.853
-5.081 -6.783 1.715
-5.893 -7.697 1.810
-5.355 -6.803 1.472
-5.336 -6.836 1.525
-5.052 -6.572 1.537
-6.039 -7.747 1.710
-5.876 -7.717 1.845
-4.813 -6.592 1.804
-5.896 -7.713 1.822
-5.726 -7.429 1.717
-5.052 -6.572 1.538
-5.874 -7.721 1.851
-4.873 -6.719 1.866
-5.719 -7.386 1.675
-5.795 -7.535 1.751
-5.858 -7.720 1.870
-5.052 -6.572 1.538
-5.877 -7.712 1.841
-5.104 -6.472 1.386
-5.052 -6.572 1.538
-6.053 -7.723 1.677
-4.909 -6.782 1.888
-5.151 -6.848 1.713
-5.052 -6.572 1.538
-5.640 -7.329 1.702
-5.081 -6.784 1.716
-8.583 -10.452 1.886
-5.052 -6.572 1.538
-5.332 -6.837 1.529
-5.147 -6.503 1.375
-5.051 -6.572 1.539
-5.846 -7.578 1.737
-5.875 -7.697 1.825
-4.582 -6.563 2.006
-5.054 -6.574 1.538
-6.048 -7.741 1.701
-5.054 -6.573 1.538
-5.506 -6.828 1.347
-5.054 -6.573 1.538
-5.148 -6.501 1.372
-5.858 -7.641 1.785
-5.054 -6.573 1.538
-5.054 -6.574 1.538
-4.909 -6.785 1.890
-5.054 -6.571 1.535
-5.105 -6.787 1.695
-5.544 -7.545 2.016
-6.053 -7.722 1.676
-5.819 -7.539 1.735
-5.896 -7.714 1.823
-5.837 -7.630 1.800
-8.583 -10.453 1.886
-8.643 -10.450 1.823
-5.390 -6.802 1.439
-5.369 -6.836 1.491
-6.066 -7.691 1.628
-4.683 -6.551 1.884
-5.819 -7.546 1.742
-5.348 -6.836 1.514
-5.896 -7.709 1.819
-5.823 -7.598 1.770
-5.534 -6.821 1.311
-4.584 -6.532 1.973
-5.876 -7.727 1.856
-4.770 -6.706 1.947
-5.782 -7.484 1.708
-5.857 -7.690 1.842
-4.908 -6.769 1.876
-4.818 -6.716 1.910
-5.877 -7.705 1.833
-4.909 -6.233 1.344
-5.148 -6.501 1.372
-4.909 -6.781 1.886
-5.548 -6.839 1.317
-4.811 -6.708 1.907
-5.319 -6.790 1.497
-4.707 -6.506 1.816
-4.989 -6.727 1.762
-5.372 -6.811 1.464
-4.762 -6.712 1.964
-5.053 -6.572 1.538
-5.780 -7.496 1.719
-6.006 -7.590 1.596
-5.355 -6.789 1.459
-5.346 -6.813 1.493
-8.565 -10.295 1.740
-5.780 -7.485 1.717
-6.047 -7.708 1.669
-5.906 -7.676 1.775
-4.682 -6.236 1.568
-5.829 -7.675 1.853
-5.825 -7.640 1.822
-4.758 -6.542 1.795
-5.877 -7.719 1.848
-5.870 -7.725 1.861
-5.081 -6.784 1.717
-5.848 -7.646 1.803
-5.826 -7.590 1.781
-5.872 -7.703 1.837
-5.875 -7.722 1.851
-4.521 -6.550 2.055
-4.517 -6.541 2.050
-5.877 -7.715 1.843
-5.343 -6.854 1.538
-4.818 -6.718 1.912
-5.544 -7.544 2.016
-4.818 -6.717 1.911
-4.682 -6.288 1.621
-5.111 -6.690 1.591
-5.823 -7.574 1.761
-5.362 -6.824 1.488
-5.877 -7.718 1.848
-4.817 -6.462 1.659
-4.190 -5.615 1.445
-4.909 -6.782 1.888
-5.749 -7.434 1.700
-4.909 -6.785 1.892
-5.199 -6.837 1.656
-4.877 -6.757 1.890
-5.178 -6.587 1.425
-8.402 -10.379 1.996
-5.429 -7.490 2.073
-4.707 -6.531 1.840
-4.909 -6.794 1.900
-6.045 -7.725 1.689
-4.638 -6.524 1.910
-5.265 -6.900 1.649
-5.860 -7.742 1.892
-4.731 -6.253 1.536
-4.836 -6.716 1.892
-5.215 -6.319 1.126
-4.705 -6.396 1.702
-4.676 -6.134 1.477
-5.388 -6.825 1.463
-4.760 -6.531 1.794
-4.732 -6.229 1.512
-4.046 -4.908 0.887
-4.046 -4.908 0.886
-5.358 -6.772 1.441
-4.046 -4.908 0.886
-5.200 -6.288 1.108
-4.676 -6.134 1.477
-5.338 -6.851 1.539
-4.545 -6.554 2.031
-5.308 -6.823 1.544
-3.621 -5.158 1.554
-4.676 -6.134 1.477
-4.730 -6.290 1.574
-5.073 -6.581 1.526
-5.724 -7.455 1.749
-4.676 -6.133 1.477
-4.728 -6.313 1.596
-3.640 -5.056 1.435
-4.676 -6.134 1.477
-3.216 -3.990 0.798
-3.216 -3.990 0.799
-5.377 -6.813 1.461
-4.802 -6.751 1.957
-4.698 -6.436 1.752
-4.373 -5.368 1.008
-3.215 -3.987 0.795
-4.728 -6.495 1.772
-3.216 -3.989 0.797
-4.923 -6.794 1.884
-5.312 -6.904 1.620
-3.846 -4.467 0.645
-5.377 -6.801 1.448
-3.845 -4.447 0.627
-5.377 -6.806 1.454
-4.728 -6.143 1.432
-4.625 -6.497 1.890
-5.369 -6.879 1.535
-4.676 -6.134 1.477
-4.676 -6.134 1.477
-4.837 -6.716 1.891
-4.343 -5.056 0.738
-4.844 -6.721 1.889
-3.640 -5.063 1.442
-4.676 -6.134 1.477
-3.965 -4.875 0.934
-4.728 -6.314 1.599
-4.676 -6.134 1.477
-5.176 -6.574 1.421
-5.363 -6.826 1.489
-3.964 -4.907 0.968
-3.359 -5.128 1.785
-4.728 -6.290 1.576
-3.359 -5.135 1.792
-5.084 -6.113 1.043
-4.271 -5.628 1.377
-5.215 -6.322 1.128
-3.214 -3.985 0.795
-4.676 -6.133 1.477
-5.109 -6.595 1.505
-4.380 -5.776 1.417
-5.653 -7.402 1.760
-4.362 -5.052 0.714
-5.196 -6.850 1.673
-4.357 -5.729 1.392
-5.217 -6.320 1.125
-5.180 -6.601 1.444
-4.676 -6.133 1.477
-5.217 -6.322 1.128
-5.390 -6.791 1.426
-4.523 -6.558 2.048
-4.344 -5.051 0.732
-4.696 -6.546 1.867
-3.555 -5.013 1.477
-5.035 -6.461 1.447
-5.293 -6.847 1.582
-4.452 -5.385 0.955
-3.216 -3.988 0.796
-4.751 -6.483 1.755
-5.168 -6.175 1.017
-3.998 -4.816 0.843
-4.726 -6.212 1.499
-3.216 -3.990 0.798
-3.636 -5.066 1.448
-5.874 -7.712 1.844
-3.618 -5.158 1.558
-4.222 -5.035 0.837
-4.402 -5.425 1.040
-5.275 -6.901 1.651
-4.046 -4.900 0.879
-3.969 -4.887 0.943
-3.968 -4.910 0.966
-3.216 -3.990 0.798