-5.669 -6.570 0.901
-5.669 -6.570 0.901
-7.075 -6.659 -0.415
-7.067 -6.658 -0.408
-7.067 -6.658 -0.408
-7.067 -6.658 -0.408
-7.075 -6.659 -0.415
-7.075 -6.659 -0.415
-7.075 -6.659 -0.415
-7.067 -6.658 -0.408
-7.210 -6.631 -0.578
-7.047 -6.655 -0.392
-7.040 -6.655 -0.384
-7.040 -6.655 -0.384
-7.040 -6.655 -0.384
-7.040 -6.655 -0.384
-5.680 -6.568 0.888
-5.680 -6.568 0.888
-7.048 -6.655 -0.392
-7.040 -6.655 -0.384
-7.040 -6.655 -0.384
-7.040 -6.655 -0.384
-7.040 -6.655 -0.384
-7.040 -6.655 -0.384
-7.040 -6.655 -0.384
-7.040 -6.655 -0.384
-7.057 -6.656 -0.400
-7.057 -6.656 -0.400
-7.040 -6.655 -0.384
-7.040 -6.655 -0.384
-7.048 -6.655 -0.392
-7.048 -6.655 -0.392
-7.040 -6.655 -0.384
-7.040 -6.655 -0.384
-7.040 -6.655 -0.384
-5.680 -6.568 0.888
-7.040 -6.655 -0.384
-7.040 -6.655 -0.384
-7.040 -6.655 -0.384
-7.040 -6.655 -0.384
-7.040 -6.655 -0.384
-7.040 -6.655 -0.384
-7.040 -6.655 -0.384
-7.040 -6.655 -0.384
-7.040 -6.655 -0.384
-7.040 -6.655 -0.384
-7.040 -6.655 -0.384
-7.040 -6.655 -0.384
-7.040 -6.655 -0.384
-7.040 -6.655 -0.384
-7.040 -6.655 -0.384
-7.048 -6.655 -0.392
-7.048 -6.655 -0.392
-7.048 -6.655 -0.392
-7.040 -6.655 -0.384
-7.040 -6.655 -0.384
-7.040 -6.655 -0.384
-7.040 -6.655 -0.384
-7.040 -6.655 -0.384
-7.040 -6.655 -0.384
-7.040 -6.655 -0.384
-7.040 -6.655 -0.384
-7.048 -6.655 -0.392
-7.040 -6.655 -0.384
-7.040 -6.655 -0.384
-7.048 -6.655 -0.392
-7.040 -6.655 -0.384
-7.040 -6.655 -0.384
-5.653 -6.567 0.915
-5.653 -6.567 0.915
-5.653 -6.567 0.915
-5.653 -6.567 0.915
-5.653 -6.567 0.915
-5.653 -6.567 0.915
-5.653 -6.567 0.915
-7.040 -6.655 -0.384
-7.040 -6.655 -0.384
-7.040 -6.655 -0.384
-7.040 -6.655 -0.384
-7.048 -6.655 -0.392
-7.048 -6.655 -0.392
-7.048 -6.655 -0.392
-9.033 -7.183 -1.851
-7.029 -6.652 -0.376
-5.682 -6.594 0.912
-5.682 -6.594 0.912
-5.682 -6.594 0.912
-7.049 -7.274 0.225
-7.049 -7.274 0.225
-7.049 -7.274 0.225
-7.049 -7.274 0.225
-5.682 -6.594 0.913
-7.278 -7.367 0.086
-6.744 -6.697 -0.046
-6.744 -6.697 -0.046
-6.744 -6.697 -0.046
-7.026 -6.651 -0.374
-5.655 -6.601 0.946
-7.026 -6.651 -0.374
-5.655 -6.601 0.946
-9.008 -7.188 -1.822
-7.054 -7.274 0.219
-7.054 -7.274 0.219
-7.030 -6.652 -0.377
-7.030 -6.652 -0.377
-7.030 -6.652 -0.377
-5.682 -6.592 0.911
-5.682 -6.592 0.911
-5.682 -6.592 0.911
-5.682 -6.592 0.911
-5.654 -6.591 0.937
-6.748 -6.699 -0.048
-7.054 -7.274 0.219
-7.054 -7.274 0.219
-7.054 -7.274 0.219
-7.054 -7.274 0.219
-7.030 -6.652 -0.377
-7.030 -6.652 -0.377
-7.030 -6.652 -0.377
-7.030 -6.652 -0.377
-7.030 -6.652 -0.377
-7.055 -7.274 0.219
-7.055 -7.274 0.219
-7.055 -7.274 0.219
-7.055 -7.274 0.219
-5.654 -6.591 0.937
-5.654 -6.591 0.937
-5.654 -6.591 0.937
-7.038 -6.652 -0.385
-7.038 -6.652 -0.385
-6.748 -6.700 -0.048
-6.748 -6.700 -0.048
-7.055 -7.274 0.219
-7.055 -7.274 0.219
-7.038 -6.652 -0.385
-7.030 -6.652 -0.377
-7.030 -6.652 -0.377
-7.030 -6.652 -0.377
-7.030 -6.652 -0.377
-7.030 -6.652 -0.377
-5.682 -6.592 0.911
-5.682 -6.592 0.911
-5.682 -6.592 0.911
-7.030 -6.652 -0.377
-7.102 -7.268 0.166
-7.070 -7.270 0.201
-5.654 -6.592 0.939
-5.654 -6.592 0.939
-5.654 -6.592 0.939
-5.654 -6.592 0.939
-5.654 -6.592 0.939
-5.654 -6.592 0.939
-6.748 -6.700 -0.047
-6.748 -6.700 -0.047
-6.748 -6.700 -0.047
-6.748 -6.700 -0.047
-9.045 -7.182 -1.864
-9.045 -7.182 -1.864
-7.065 -7.271 0.207
-6.747 -6.700 -0.046
-6.747 -6.699 -0.046
-7.037 -6.652 -0.384
-5.681 -6.595 0.914
-7.028 -6.652 -0.376
-7.037 -6.652 -0.384
-9.045 -7.182 -1.864
-7.283 -7.369 0.083
-9.045 -7.182 -1.864
-6.747 -6.700 -0.046
-6.747 -6.700 -0.046
-5.571 -6.056 0.486
-6.747 -6.700 -0.046
-6.747 -6.700 -0.046
-5.611 -6.597 0.987
-5.654 -6.594 0.940
-7.284 -7.368 0.082
-7.284 -7.368 0.082
-5.613 -6.605 0.992
-9.021 -7.187 -1.835
-7.070 -7.270 0.201
-5.576 -6.600 1.024
-7.284 -7.369 0.082
-7.284 -7.369 0.082
-9.021 -7.187 -1.835
-7.070 -7.270 0.201
-7.070 -7.270 0.201
-7.029 -6.652 -0.376
-7.029 -6.652 -0.376
-7.029 -6.652 -0.376
-7.029 -6.652 -0.376
-7.283 -7.369 0.083
-6.744 -6.699 -0.045
-6.744 -6.699 -0.045
-6.744 -6.699 -0.045
-6.744 -6.699 -0.045
-6.744 -6.699 -0.045
-5.682 -6.602 0.920
-5.655 -6.601 0.947
-5.655 -6.601 0.947
-5.682 -6.602 0.920
-5.599 -6.659 1.060
-6.744 -6.698 -0.045
-5.613 -6.605 0.992
-5.613 -6.605 0.992
-5.613 -6.605 0.992
-9.021 -7.187 -1.835
-7.070 -7.270 0.201
-6.739 -6.699 -0.040
-6.739 -6.699 -0.040
-6.739 -6.699 -0.040
-6.739 -6.699 -0.040
-6.739 -6.699 -0.040
-7.070 -7.270 0.201
-7.070 -7.270 0.201
-5.567 -6.056 0.490
-5.654 -6.592 0.939
-7.284 -7.368 0.082
-7.284 -7.368 0.082
-9.021 -7.187 -1.835
-7.070 -7.270 0.201
-5.654 -6.592 0.939
-5.654 -6.592 0.939
-5.654 -6.592 0.939
-5.654 -6.592 0.939
-5.654 -6.592 0.939
-5.654 -6.592 0.939
-7.070 -7.270 0.201
-7.029 -6.652 -0.376
-7.070 -7.270 0.201
-6.748 -6.700 -0.047
-6.740 -6.699 -0.040
-6.740 -6.699 -0.040
-6.740 -6.699 -0.040
-7.070 -7.270 0.201
-7.070 -7.270 0.201
-7.070 -7.270 0.201
-7.070 -7.270 0.201
-7.029 -6.652 -0.376
-7.070 -7.270 0.201
-7.070 -7.270 0.201
-9.032 -7.189 -1.844
-9.015 -7.186 -1.829
-9.015 -7.186 -1.829
-7.067 -7.269 0.202
-7.200 -6.629 -0.570
-7.070 -7.270 0.200
-7.029 -6.652 -0.376
-5.654 -6.592 0.939
-5.654 -6.592 0.939
-5.654 -6.592 0.939
-5.654 -6.592 0.939
-5.654 -6.592 0.939
-7.020 -6.652 -0.368
-6.748 -6.700 -0.047
-6.748 -6.700 -0.047
-6.748 -6.700 -0.047
-7.038 -6.653 -0.384
-8.988 -7.187 -1.802
-7.088 -7.269 0.181
-7.024 -6.654 -0.370
-7.024 -6.654 -0.370
-7.062 -7.276 0.215
-7.088 -7.269 0.181
-5.646 -6.587 0.941
-7.062 -7.276 0.215
-7.032 -6.655 -0.377
-7.096 -7.269 0.173
-7.096 -7.269 0.173
-7.096 -7.269 0.173
-7.096 -7.269 0.173
-7.096 -7.269 0.173
-7.096 -7.269 0.173
-7.096 -7.269 0.173
-7.096 -7.269 0.173
-7.088 -7.269 0.181
-7.088 -7.269 0.181
-6.447 -6.964 0.518
-6.735 -6.701 -0.033
-6.735 -6.701 -0.033
-6.735 -6.701 -0.033
-6.743 -6.702 -0.040
-6.743 -6.702 -0.040
-7.088 -7.269 0.181
-6.735 -6.701 -0.033
-5.566 -6.597 1.031
-5.603 -6.590 0.988
-6.743 -6.702 -0.040
-5.566 -6.596 1.031
-5.566 -6.597 1.031
-5.566 -6.597 1.031
-5.566 -6.597 1.031
-5.566 -6.597 1.031
-5.646 -6.587 0.941
-7.032 -6.655 -0.377
-7.226 -7.347 0.119
-7.226 -7.346 0.119
-5.647 -6.596 0.949
-5.605 -6.599 0.994
-5.605 -6.599 0.994
-6.731 -6.699 -0.032
-6.731 -6.699 -0.032
-6.731 -6.699 -0.032
-6.731 -6.699 -0.032
-6.731 -6.699 -0.032
-6.731 -6.699 -0.032
-6.731 -6.699 -0.032
-6.731 -6.699 -0.032
-6.731 -6.699 -0.032
-6.731 -6.699 -0.032
-5.647 -6.596 0.949
-5.605 -6.599 0.994
-6.731 -6.699 -0.032
-7.062 -7.272 0.211
-6.731 -6.699 -0.032
-7.062 -7.272 0.211
-7.062 -7.272 0.211
-7.062 -7.272 0.211
-5.832 -6.631 0.800
-6.731 -6.699 -0.031
-6.731 -6.699 -0.031
-5.647 -6.596 0.949
-5.647 -6.596 0.949
-5.647 -6.596 0.949
-5.647 -6.596 0.949
-5.605 -6.599 0.994
-5.605 -6.599 0.994
-7.069 -7.272 0.203
-7.069 -7.272 0.203
-7.062 -7.272 0.211
-7.062 -7.272 0.211
-5.560 -6.058 0.499
-5.560 -6.058 0.499
-7.043 -7.279 0.237
-6.437 -6.952 0.516
-6.437 -6.952 0.515
-7.069 -7.272 0.203
-7.069 -7.272 0.203
-7.069 -7.272 0.203
-7.062 -7.272 0.211
-7.062 -7.272 0.211
-7.062 -7.272 0.211
-7.062 -7.272 0.211
-6.731 -6.699 -0.031
-6.731 -6.699 -0.031
-7.062 -7.272 0.211
-7.062 -7.272 0.211
-7.062 -7.272 0.211
-6.731 -6.699 -0.031
-6.731 -6.699 -0.031
-5.567 -6.605 1.038
-7.062 -7.272 0.211
-7.062 -7.272 0.211
-7.062 -7.272 0.211
-7.035 -7.279 0.245
-7.035 -7.279 0.245
-7.035 -7.279 0.245
-7.093 -7.269 0.176
-7.093 -7.269 0.176
-7.093 -7.269 0.176
-7.093 -7.269 0.176
-7.093 -7.269 0.176
-7.069 -7.272 0.203
-6.731 -6.699 -0.031
-6.731 -6.699 -0.031
-6.731 -6.699 -0.031
-6.731 -6.699 -0.031
-6.731 -6.699 -0.031
-6.731 -6.699 -0.031
-6.739 -6.700 -0.039
-6.739 -6.700 -0.039
-5.647 -6.596 0.949
-6.731 -6.699 -0.031
-6.731 -6.699 -0.031
-6.731 -6.699 -0.031
-6.731 -6.699 -0.031
-7.008 -7.282 0.275
-7.008 -7.282 0.275
-6.731 -6.699 -0.031
-6.731 -6.699 -0.031
-7.093 -7.269 0.176
-6.329 -7.029 0.701
-5.567 -6.605 1.038
-7.062 -7.272 0.211
-7.062 -7.272 0.211
-5.567 -6.605 1.038
-5.567 -6.605 1.038
-5.647 -6.596 0.949
-6.731 -6.699 -0.031
-9.009 -7.190 -1.820
-7.068 -7.272 0.203
-7.068 -7.272 0.203
-7.068 -7.272 0.203
-6.740 -6.700 -0.039
-7.042 -7.278 0.237
-5.520 -6.657 1.137
-5.520 -6.657 1.137
-5.520 -6.657 1.137
-5.646 -6.593 0.947
-5.646 -6.593 0.947
-7.068 -7.271 0.203
-5.560 -6.058 0.499
-6.325 -7.027 0.703
-6.732 -6.699 -0.032
-7.068 -7.272 0.203
-7.068 -7.272 0.203
-5.646 -6.593 0.947
-6.732 -6.699 -0.032
-6.732 -6.699 -0.032
-6.732 -6.699 -0.032
-6.732 -6.699 -0.032
-6.732 -6.699 -0.032
-6.316 -7.030 0.714
-6.732 -6.699 -0.032
-7.022 -6.653 -0.368
-7.022 -6.653 -0.368
-7.100 -7.269 0.169
-7.068 -7.272 0.203
-5.566 -6.602 1.036
-5.566 -6.602 1.036
-5.519 -6.657 1.138
-6.732 -6.700 -0.031
-6.732 -6.700 -0.031
-7.068 -7.272 0.203
-7.068 -7.272 0.203
-7.068 -7.272 0.203
-7.100 -7.269 0.169
-6.732 -6.700 -0.031
-6.732 -6.700 -0.032
-6.732 -6.700 -0.031
-6.732 -6.700 -0.031
-6.740 -6.701 -0.039
-7.192 -6.630 -0.561
-6.732 -6.700 -0.032
-6.732 -6.700 -0.031
-6.732 -6.700 -0.032
-6.732 -6.700 -0.032
-6.732 -6.700 -0.031
-4.686 -5.804 1.119
-4.686 -5.804 1.119
-5.519 -6.657 1.138
-5.519 -6.657 1.138
-7.068 -7.271 0.203
-7.068 -7.271 0.203
-7.220 -7.375 0.152
-7.220 -7.375 0.152
-7.018 -7.280 0.263
-6.729 -6.698 -0.030
-6.439 -6.751 0.313
-5.647 -6.601 0.955
-7.052 -7.274 0.222
-7.052 -7.274 0.222
-7.052 -7.274 0.222
-5.522 -6.663 1.142
-5.522 -6.663 1.142
-5.522 -6.663 1.142
-5.522 -6.663 1.142
-6.728 -6.698 -0.030
-6.324 -7.030 0.707
-7.018 -7.280 0.263
-7.077 -7.271 0.194
-6.728 -6.698 -0.030
-6.728 -6.698 -0.030
-6.728 -6.698 -0.030
-6.728 -6.698 -0.030
-6.728 -6.698 -0.030
-6.728 -6.698 -0.030
-7.045 -7.274 0.229
-7.045 -7.274 0.229
-4.999 -7.099 2.096
-5.552 -6.060 0.508
-5.552 -6.060 0.508
-7.018 -7.280 0.263
-6.729 -6.698 -0.030
-5.522 -6.663 1.141
-5.647 -6.601 0.955
-5.647 -6.601 0.954
-5.522 -6.663 1.141
-6.737 -6.699 -0.037
-6.737 -6.699 -0.037
-6.737 -6.699 -0.037
-6.913 -6.665 -0.247
-6.754 -6.697 -0.056
-7.175 -7.256 0.081
-7.143 -7.258 0.115
-7.143 -7.258 0.115
-7.143 -7.258 0.115
-6.746 -6.697 -0.048
-6.746 -6.697 -0.048
-6.746 -6.698 -0.048
-6.746 -6.697 -0.048
-6.746 -6.697 -0.048
-7.175 -7.256 0.081
-7.175 -7.256 0.081
-5.538 -6.634 1.096
-5.500 -6.640 1.140
-7.143 -7.258 0.115
-7.143 -7.258 0.115
-7.143 -7.258 0.115
-6.746 -6.698 -0.048
-7.125 -7.266 0.140
-6.463 -6.968 0.506
-6.353 -7.020 0.668
-6.746 -6.697 -0.048
-7.117 -7.265 0.148
-5.578 -6.575 0.997
-5.587 -6.051 0.465
-7.143 -7.258 0.115
-5.538 -6.634 1.096
-5.538 -6.634 1.096
-5.538 -6.634 1.096
-5.538 -6.634 1.096
-5.538 -6.634 1.096
-5.538 -6.634 1.096
-6.746 -6.698 -0.048
-7.175 -7.256 0.081
-7.175 -7.256 0.081
-7.175 -7.256 0.081
-7.175 -7.256 0.081
-7.175 -7.256 0.081
-7.175 -7.256 0.081
-7.175 -7.256 0.081
-7.143 -7.258 0.115
-7.143 -7.258 0.115
-6.453 -6.955 0.503
-6.453 -6.955 0.503
-6.453 -6.955 0.503
-6.453 -6.955 0.503
-6.453 -6.955 0.503
-5.624 -6.568 0.944
-5.624 -6.568 0.944
-6.746 -6.697 -0.048
-7.175 -7.256 0.081
-9.044 -7.182 -1.863
-6.743 -6.693 -0.049
-6.735 -6.692 -0.042
-6.735 -6.692 -0.042
-6.735 -6.692 -0.042
-6.735 -6.692 -0.042
-6.735 -6.692 -0.042
-6.433 -6.749 0.317
-6.433 -6.937 0.505
-6.735 -6.692 -0.042
-6.735 -6.692 -0.042
-7.073 -7.271 0.199
-7.073 -7.271 0.199
-7.073 -7.271 0.199
-7.073 -7.271 0.199
-6.433 -6.749 0.317
-7.238 -7.371 0.131
-6.438 -6.748 0.310
-6.438 -6.748 0.310
-6.438 -6.747 0.310
-6.438 -6.747 0.310
-7.046 -7.272 0.227
-5.560 -6.057 0.498
-6.438 -6.748 0.310
-6.438 -6.747 0.310
-7.078 -7.269 0.192
-6.732 -6.691 -0.041
-6.732 -6.691 -0.041
-6.732 -6.691 -0.041
-7.078 -7.269 0.192
-7.078 -7.269 0.192
-7.078 -7.269 0.192
-7.078 -7.269 0.192
-7.078 -7.269 0.192
-7.078 -7.269 0.192
-7.078 -7.269 0.192
-7.078 -7.269 0.192
-7.078 -7.269 0.192
-7.078 -7.269 0.192
-7.078 -7.269 0.192
-6.732 -6.691 -0.041
-7.046 -7.272 0.227
-6.429 -6.934 0.506
-6.430 -6.744 0.314
-6.438 -6.945 0.508
-6.438 -6.946 0.508
-6.438 -6.945 0.508
-6.438 -6.945 0.508
-6.438 -6.945 0.508
-7.078 -7.269 0.192
-6.732 -6.691 -0.041
-6.732 -6.691 -0.041
-6.429 -6.934 0.506
-6.429 -6.934 0.506
-6.429 -6.934 0.506
-7.046 -7.272 0.227
-6.732 -6.691 -0.041
-6.732 -6.691 -0.041
-6.732 -6.691 -0.041
-6.732 -6.691 -0.041
-6.324 -7.024 0.701
-6.430 -6.744 0.314
-6.430 -6.744 0.314
-7.046 -7.272 0.227
-7.034 -6.652 -0.382
-7.078 -7.270 0.192
-6.736 -6.698 -0.038
-7.051 -7.276 0.226
-7.027 -7.280 0.253
-7.046 -7.272 0.227
-6.436 -6.937 0.501
-6.438 -6.750 0.312
-7.046 -7.272 0.227
-7.046 -7.272 0.227
-7.046 -7.272 0.227
-7.046 -7.272 0.227
-6.438 -6.750 0.312
-6.736 -6.698 -0.038
-6.736 -6.698 -0.038
-5.528 -6.662 1.135
-5.528 -6.662 1.135
-5.565 -6.599 1.034
-7.078 -7.269 0.192
-7.078 -7.269 0.192
-7.078 -7.269 0.192
-7.046 -7.272 0.227
-6.736 -6.698 -0.038
-7.078 -7.270 0.192
-6.436 -6.937 0.501
-9.021 -7.187 -1.835
-6.442 -6.755 0.313
-6.442 -6.755 0.313
-6.442 -6.941 0.500
-7.102 -7.268 0.166
-4.694 -5.758 1.066
-7.102 -7.268 0.166
-7.102 -7.268 0.166
-7.102 -7.268 0.166
-7.102 -7.268 0.166
-7.102 -7.268 0.166
-5.573 -6.602 1.029
-5.565 -6.056 0.492
-5.573 -6.602 1.029
-6.739 -6.699 -0.039
-6.739 -6.699 -0.039
-5.567 -6.056 0.490
-6.451 -6.953 0.502
-7.051 -7.278 0.227
-7.051 -7.280 0.229
-6.451 -6.953 0.503
-7.043 -7.277 0.235
-5.565 -6.056 0.492
-7.102 -7.268 0.166
-7.102 -7.268 0.166
-7.102 -7.268 0.166
-7.102 -7.268 0.166
-7.102 -7.268 0.166
-7.102 -7.268 0.166
-7.102 -7.268 0.166
-6.442 -6.755 0.313
-6.442 -6.941 0.500
-6.442 -6.941 0.500
-6.442 -6.755 0.313
-6.442 -6.941 0.500
-7.102 -7.268 0.166
-7.102 -7.268 0.166
-7.070 -7.270 0.201
-6.325 -7.026 0.703
-6.442 -6.941 0.500
-7.102 -7.268 0.166
-7.102 -7.268 0.166
-7.102 -7.268 0.166
-7.102 -7.268 0.166
-7.102 -7.268 0.166
-7.102 -7.268 0.166
-7.102 -7.268 0.166
-7.102 -7.268 0.166
-6.442 -6.755 0.313
-6.442 -6.941 0.500
-7.074 -7.275 0.200
-7.070 -7.270 0.201
-6.339 -7.026 0.688
-6.339 -7.026 0.688
-5.565 -6.056 0.492
-7.102 -7.268 0.166
-7.102 -7.268 0.166
-7.078 -7.271 0.193
-7.078 -7.271 0.193
-6.442 -6.755 0.313
-6.442 -6.755 0.313
-6.442 -6.755 0.313
-6.740 -6.699 -0.039
-4.694 -5.758 1.066
-5.573 -6.602 1.029
-6.339 -7.026 0.688
-6.339 -7.026 0.688
-6.339 -7.026 0.688
-6.339 -7.026 0.688
-7.102 -7.268 0.166
-5.573 -6.602 1.029
-6.450 -6.758 0.309
-6.450 -6.758 0.309
-6.450 -6.758 0.309
-6.450 -6.758 0.309
-6.451 -6.953 0.502
-6.339 -7.026 0.688
-6.339 -7.026 0.688
-7.043 -7.277 0.235
-7.043 -7.277 0.235
-7.043 -7.277 0.235
-7.043 -7.277 0.235
-5.573 -6.602 1.029
-6.442 -6.755 0.313
-6.739 -6.699 -0.039
-6.739 -6.699 -0.039
-6.739 -6.699 -0.039
-6.739 -6.699 -0.039
-7.070 -7.270 0.201
-6.442 -6.941 0.500
-7.043 -7.277 0.235
-6.740 -6.699 -0.039
-6.740 -6.699 -0.039
-6.740 -6.699 -0.039
-5.576 -6.603 1.027
-7.102 -7.268 0.166
-7.102 -7.268 0.166
-7.102 -7.268 0.166
-4.736 -5.754 1.019
-4.652 -5.751 1.100
-6.431 -6.911 0.480
-6.433 -6.724 0.291
-7.172 -7.254 0.082
-7.172 -7.254 0.082
-7.172 -7.254 0.082
-6.443 -6.732 0.290
-6.443 -6.732 0.290
-6.443 -6.732 0.290
-6.443 -6.732 0.290
-6.443 -6.732 0.290
-7.145 -7.261 0.116
-7.145 -7.261 0.116
-7.145 -7.261 0.116
-5.574 -6.570 0.996
-6.341 -7.007 0.667
-6.443 -6.732 0.290
-7.141 -7.257 0.116
-7.172 -7.254 0.082
-7.172 -7.254 0.082
-7.172 -7.254 0.082
-7.172 -7.254 0.082
-6.922 -6.666 -0.254
-4.688 -5.754 1.067
-7.143 -7.258 0.115
-7.143 -7.258 0.115
-7.143 -7.258 0.115
-7.143 -7.258 0.115
-7.143 -7.258 0.115
-5.586 -6.051 0.466
-6.354 -7.021 0.668
-7.143 -7.258 0.115
-6.454 -6.957 0.504
-6.454 -6.957 0.504
-7.175 -7.256 0.081
-7.175 -7.256 0.081
-7.143 -7.258 0.115
-7.143 -7.258 0.115
-6.746 -6.697 -0.048
-7.175 -7.256 0.081
-6.453 -6.955 0.503
-6.453 -6.955 0.503
-6.453 -6.955 0.503
-6.453 -6.955 0.503
-6.453 -6.955 0.503
-7.175 -7.256 0.081
-7.175 -7.256 0.081
-7.175 -7.256 0.081
-7.175 -7.256 0.081
-7.175 -7.256 0.081
-4.732 -5.752 1.021
-6.453 -6.955 0.503
-6.453 -6.955 0.503
-6.453 -6.955 0.503
-6.453 -6.955 0.503
-7.143 -7.258 0.115
-7.175 -7.256 0.081
-7.143 -7.258 0.115
-7.143 -7.258 0.115
-6.453 -6.955 0.503
-6.453 -6.955 0.503
-7.175 -7.256 0.081
-7.175 -7.256 0.081
-6.353 -7.020 0.668
-5.578 -6.575 0.997
-7.143 -7.258 0.115
-7.143 -7.258 0.115
-7.143 -7.258 0.115
-7.143 -7.258 0.115
-7.143 -7.258 0.115
-7.143 -7.258 0.115
-7.143 -7.258 0.115
-7.143 -7.258 0.115
-7.143 -7.258 0.115
-7.117 -7.265 0.148
-5.578 -6.575 0.997
-6.353 -7.020 0.668
-5.587 -6.051 0.465
-6.353 -7.020 0.668
-7.143 -7.258 0.115
-5.538 -6.634 1.096
-5.580 -6.573 0.993
-5.580 -6.574 0.993
-5.580 -6.573 0.993
-7.175 -7.255 0.081
-4.748 -4.750 0.001
-7.148 -7.262 0.115
-7.148 -7.262 0.115
-7.148 -7.262 0.115
-7.148 -7.262 0.115
-7.148 -7.262 0.115
-7.148 -7.262 0.115
-7.148 -7.262 0.115
-7.148 -7.262 0.115
-7.148 -7.262 0.115
-7.148 -7.262 0.115
-6.349 -7.019 0.670
-6.349 -7.019 0.670
-6.349 -7.019 0.670
-6.349 -7.019 0.670
-6.449 -6.951 0.503
-7.143 -7.258 0.115
-7.143 -7.258 0.115
-6.335 -7.019 0.686
-6.335 -7.019 0.686
-7.143 -7.258 0.115
-7.143 -7.258 0.115
-7.143 -7.258 0.115
-7.143 -7.258 0.115
-7.083 -7.266 0.183
-6.349 -7.019 0.671
-7.175 -7.255 0.081
-7.175 -7.255 0.081
-7.175 -7.255 0.081
-5.500 -6.640 1.140
-7.110 -7.258 0.148
-6.349 -7.019 0.671
-5.580 -6.573 0.994
-6.349 -7.019 0.671
-6.459 -6.965 0.507
-6.459 -6.965 0.507
-6.459 -6.965 0.507
-6.349 -7.019 0.670
-6.449 -6.951 0.503
-6.349 -7.019 0.670
-5.579 -6.574 0.994
-6.349 -7.019 0.670
-6.349 -7.019 0.670
-6.349 -7.019 0.670
-6.349 -7.019 0.670
-7.175 -7.255 0.081
-7.175 -7.255 0.081
-5.589 -6.573 0.984
-7.125 -7.265 0.141
-6.449 -6.951 0.503
-7.175 -7.255 0.081
-7.175 -7.255 0.081
-7.175 -7.255 0.081
-6.349 -7.019 0.671
-7.147 -7.262 0.115
-7.147 -7.262 0.115
-7.143 -7.258 0.115
-7.175 -7.255 0.081
-5.579 -6.574 0.994
-7.175 -7.255 0.081
-7.110 -7.258 0.148
-7.175 -7.255 0.081
-5.580 -6.573 0.994
-7.116 -7.265 0.149
-7.143 -7.258 0.115
-5.580 -6.573 0.994
-7.116 -7.265 0.149
-5.580 -6.573 0.993
-6.349 -7.019 0.671
-6.349 -7.019 0.671
-7.116 -7.265 0.149
-5.556 -6.572 1.015
-7.175 -7.255 0.081
-7.175 -7.255 0.081
-7.175 -7.255 0.081
-6.449 -6.951 0.503
-7.151 -7.258 0.108
-6.349 -7.019 0.671
-5.590 -6.573 0.983
-7.175 -7.255 0.081
-7.175 -7.255 0.081
-6.449 -6.951 0.503
-7.143 -7.258 0.115
-7.143 -7.258 0.115
-7.143 -7.258 0.115
-6.334 -7.019 0.686
-7.143 -7.258 0.115
-4.682 -5.753 1.071
-7.175 -7.255 0.081
-7.175 -7.255 0.081
-7.175 -7.255 0.081
-7.175 -7.255 0.081
-5.579 -6.574 0.994
-4.682 -5.753 1.071
-4.682 -5.753 1.071
-6.349 -7.019 0.671
-6.349 -7.019 0.671
-7.147 -7.262 0.115
-7.147 -7.262 0.115
-7.147 -7.262 0.115
-7.147 -7.262 0.115
-7.110 -7.258 0.148
-6.449 -6.951 0.503
-6.449 -6.951 0.503
-6.449 -6.951 0.503
-6.349 -7.019 0.671
-7.175 -7.255 0.081
-6.459 -6.965 0.507
-4.733 -4.578 -0.154
-4.733 -4.578 -0.154
-4.733 -4.578 -0.154
-4.733 -4.578 -0.154
-4.733 -4.578 -0.154
-5.474 -4.638 -0.835
-5.474 -4.638 -0.835
-5.474 -4.638 -0.835
-5.474 -4.638 -0.835
-6.014 -4.384 -1.629
-6.014 -4.384 -1.629
-4.733 -4.578 -0.155
-5.426 -4.662 -0.763
-6.014 -4.384 -1.629
-6.014 -4.384 -1.629
-6.014 -4.384 -1.629
-6.014 -4.384 -1.629
-6.014 -4.384 -1.629
-6.014 -4.384 -1.629
-5.426 -4.662 -0.763
-5.478 -4.637 -0.839
-5.478 -4.637 -0.839
-5.478 -4.637 -0.839
-5.478 -4.637 -0.839
-5.478 -4.637 -0.839
-3.906 -3.913 0.008
-3.895 -3.915 0.022
-3.895 -3.915 0.022
-3.895 -3.915 0.022
-3.895 -3.915 0.022
-6.014 -4.384 -1.629
-6.014 -4.384 -1.629
-6.014 -4.384 -1.629
-6.014 -4.384 -1.629
-6.014 -4.384 -1.629
-6.014 -4.384 -1.629
-6.014 -4.384 -1.629
-6.014 -4.384 -1.629
-5.354 -4.394 -0.959
-6.014 -4.384 -1.629
-6.014 -4.384 -1.629
-6.014 -4.384 -1.629
-6.014 -4.384 -1.629
-6.014 -4.384 -1.629
-6.014 -4.384 -1.629
-6.014 -4.384 -1.629
-6.014 -4.384 -1.629
-6.015 -4.384 -1.629
-6.015 -4.384 -1.629
-6.015 -4.384 -1.629
-6.015 -4.384 -1.629
-6.015 -4.384 -1.629
-6.015 -4.384 -1.629
-6.015 -4.384 -1.629
-5.908 -4.401 -1.506
-4.112 -4.722 0.609
-4.112 -4.722 0.610
-4.112 -4.722 0.610
-4.112 -4.722 0.609
-5.639 -4.410 -1.227
-5.639 -4.410 -1.227
-5.639 -4.410 -1.227
-5.639 -4.410 -1.227
-5.421 -4.657 -0.763
-6.015 -4.384 -1.629
-5.350 -4.394 -0.955
-5.350 -4.394 -0.955
-5.350 -4.394 -0.955
-5.350 -4.394 -0.955
-6.015 -4.384 -1.629
-6.015 -4.384 -1.629
-6.015 -4.384 -1.629
-5.421 -4.657 -0.763
-5.421 -4.657 -0.763
-5.908 -4.401 -1.506
-5.431 -4.648 -0.782
-5.431 -4.648 -0.782
-5.431 -4.648 -0.782
-5.431 -4.648 -0.782
-5.431 -4.648 -0.782
-5.431 -4.648 -0.782
-5.431 -4.648 -0.782
-5.472 -4.638 -0.833
-6.015 -4.384 -1.629
-5.350 -4.394 -0.955
-6.015 -4.384 -1.629
-5.908 -4.401 -1.506
-5.908 -4.401 -1.506
-4.112 -4.722 0.610
-5.423 -4.662 -0.760
-5.423 -4.662 -0.760
-5.637 -4.409 -1.226
-5.909 -4.401 -1.507
-5.909 -4.401 -1.507
-5.909 -4.401 -1.507
-5.909 -4.401 -1.507
-5.350 -4.394 -0.955
-5.350 -4.394 -0.955
-5.350 -4.394 -0.955
-5.350 -4.394 -0.955
-6.015 -4.384 -1.629
-6.015 -4.384 -1.629
-6.015 -4.384 -1.629
-6.015 -4.384 -1.629
-5.431 -4.648 -0.782
-5.431 -4.648 -0.782
-3.906 -3.913 0.007
-3.906 -3.913 0.007
-5.909 -4.401 -1.507
-5.909 -4.401 -1.507
-5.909 -4.401 -1.507
-5.909 -4.401 -1.507
-5.909 -4.401 -1.507
-5.909 -4.401 -1.507
-6.016 -4.384 -1.630
-5.357 -4.398 -0.958
-6.016 -4.384 -1.630
-5.909 -4.401 -1.507
-5.909 -4.401 -1.507
-4.115 -4.784 0.667
-5.909 -4.401 -1.507
-5.909 -4.401 -1.507
-5.909 -4.401 -1.507
-5.909 -4.401 -1.507
-5.909 -4.401 -1.507
-5.909 -4.401 -1.507
-4.640 -4.690 0.048
-4.640 -4.690 0.048
-4.640 -4.690 0.048
-4.640 -4.690 0.048
-4.640 -4.690 0.048
-4.640 -4.690 0.048
-4.640 -4.690 0.048
-5.423 -4.657 -0.764
-4.139 -4.788 0.648
-4.139 -4.788 0.648
-4.732 -4.580 -0.151
-5.909 -4.401 -1.507
-5.909 -4.401 -1.507
-4.114 -4.723 0.608
-5.353 -4.394 -0.958
-5.429 -4.649 -0.779
-5.429 -4.649 -0.779
-5.429 -4.649 -0.779
-5.429 -4.649 -0.779
-5.429 -4.649 -0.779
-5.423 -4.657 -0.764
-6.016 -4.384 -1.630
-5.423 -4.657 -0.765
-5.423 -4.657 -0.765
-4.640 -4.690 0.048
-5.353 -4.394 -0.958
-5.353 -4.394 -0.958
-5.353 -4.394 -0.958
-5.353 -4.394 -0.958
-5.353 -4.394 -0.958
-5.353 -4.394 -0.958
-5.353 -4.394 -0.958
-5.353 -4.394 -0.958
-5.353 -4.394 -0.958
-5.353 -4.394 -0.958
-5.353 -4.394 -0.958
-6.016 -4.384 -1.630
-6.016 -4.384 -1.630
-6.016 -4.384 -1.630
-6.016 -4.384 -1.630
-6.016 -4.384 -1.630
-5.353 -4.394 -0.958
-5.353 -4.394 -0.958
-5.353 -4.394 -0.958
-5.909 -4.401 -1.507
-5.909 -4.401 -1.507
-5.909 -4.401 -1.507
-5.909 -4.401 -1.507
-5.909 -4.401 -1.507
-5.909 -4.401 -1.507
-6.016 -4.384 -1.630
-6.016 -4.384 -1.630
-6.016 -4.384 -1.630
-6.016 -4.384 -1.630
-5.909 -4.401 -1.507
-5.909 -4.401 -1.507
-6.016 -4.384 -1.630
-4.141 -4.726 0.584
-4.141 -4.726 0.584
-4.141 -4.726 0.584
-4.141 -4.726 0.584
-6.016 -4.384 -1.630
-6.016 -4.384 -1.630
-5.639 -4.410 -1.228
-5.909 -4.401 -1.507
-6.016 -4.384 -1.630
-6.016 -4.384 -1.630
-6.016 -4.384 -1.630
-5.353 -4.394 -0.958
-5.909 -4.401 -1.507
-5.353 -4.394 -0.958
-5.353 -4.394 -0.958
-5.909 -4.401 -1.507
-5.423 -4.657 -0.765
-5.423 -4.657 -0.765
-5.423 -4.657 -0.765
-5.423 -4.657 -0.765
-5.423 -4.657 -0.765
-5.423 -4.657 -0.765
-5.423 -4.657 -0.765
-4.684 -4.427 -0.257
-5.909 -4.401 -1.507
-4.640 -4.690 0.048
-5.909 -4.401 -1.507
-4.640 -4.690 0.048
-6.016 -4.384 -1.630
-6.016 -4.384 -1.630
-6.016 -4.384 -1.630
-5.353 -4.394 -0.958
-5.469 -4.648 -0.819
-4.640 -4.690 0.048
-4.115 -4.783 0.667
-4.115 -4.783 0.667
-4.115 -4.783 0.667
-4.115 -4.783 0.667
-5.425 -4.662 -0.762
-5.425 -4.662 -0.762
-4.116 -4.726 0.609
-4.527 -4.850 0.321
-5.424 -4.657 -0.765
-5.424 -4.657 -0.765
-5.910 -4.400 -1.508
-4.523 -4.845 0.321
-4.523 -4.845 0.321
-5.425 -4.662 -0.762
-6.016 -4.384 -1.630
-6.016 -4.384 -1.630
-6.016 -4.384 -1.630
-4.731 -4.578 -0.153
-6.016 -4.384 -1.630
-5.353 -4.394 -0.958
-5.909 -4.401 -1.507
-5.423 -4.657 -0.765
-5.423 -4.657 -0.765
-5.423 -4.657 -0.765
-5.353 -4.394 -0.958
-5.429 -4.649 -0.779
-5.909 -4.401 -1.507
-5.909 -4.401 -1.507
-5.639 -4.410 -1.228
-5.909 -4.401 -1.507
-5.909 -4.401 -1.507
-5.909 -4.401 -1.507
-5.909 -4.401 -1.507
-5.909 -4.401 -1.507
-5.909 -4.401 -1.507
-5.909 -4.401 -1.507
-5.909 -4.401 -1.507
-5.909 -4.401 -1.507
-5.909 -4.401 -1.507
-5.353 -4.394 -0.958
-4.112 -4.722 0.610
-5.429 -4.649 -0.779
-5.429 -4.649 -0.779
-5.429 -4.649 -0.779
-5.429 -4.649 -0.779
-5.429 -4.649 -0.779
-4.640 -4.690 0.048
-4.640 -4.690 0.048
-5.909 -4.401 -1.507
-5.909 -4.401 -1.507
-3.895 -3.915 0.022
-5.909 -4.401 -1.507
-5.909 -4.401 -1.507
-5.473 -4.639 -0.833
-5.433 -4.648 -0.783
-5.433 -4.648 -0.783
-5.909 -4.401 -1.507
-5.909 -4.401 -1.507
-6.016 -4.384 -1.630
-4.141 -4.726 0.584
-4.115 -4.723 0.607
-4.115 -4.723 0.607
-4.115 -4.723 0.607
-4.115 -4.723 0.607
-4.527 -4.849 0.321
-4.767 -4.510 -0.257
-5.353 -4.394 -0.958
-5.909 -4.401 -1.507
-5.909 -4.401 -1.507
-5.909 -4.401 -1.507
-5.894 -4.406 -1.487
-5.414 -4.654 -0.758
-5.414 -4.654 -0.758
-5.414 -4.654 -0.758
-4.517 -4.849 0.331
-4.762 -4.513 -0.249
-5.404 -4.663 -0.739
-6.015 -4.384 -1.629
-6.015 -4.384 -1.629
-5.880 -4.387 -1.492
-4.139 -4.725 0.585
-4.139 -4.725 0.585
-4.139 -4.725 0.585
-4.139 -4.725 0.585
-4.139 -4.725 0.585
-5.433 -4.648 -0.784
-5.433 -4.648 -0.784
-4.525 -4.849 0.323
-5.908 -4.401 -1.506
-5.908 -4.401 -1.506
-5.908 -4.401 -1.506
-5.908 -4.401 -1.506
-5.350 -4.394 -0.955
-5.350 -4.394 -0.955
-5.908 -4.401 -1.506
-5.908 -4.401 -1.506
-5.908 -4.401 -1.506
-4.589 -4.720 0.130
-4.589 -4.720 0.130
-5.350 -4.394 -0.955
-4.589 -4.720 0.130
-4.769 -4.510 -0.259
-4.520 -4.845 0.323
-5.421 -4.657 -0.763
-4.526 -4.849 0.322
-5.908 -4.401 -1.506
-5.908 -4.401 -1.506
-5.908 -4.401 -1.506
-5.908 -4.401 -1.506
-5.908 -4.401 -1.506
-4.112 -4.722 0.610
-5.908 -4.401 -1.506
-6.015 -4.384 -1.629
-6.015 -4.384 -1.629
-6.015 -4.384 -1.629
-5.908 -4.401 -1.506
-5.908 -4.401 -1.506
-5.908 -4.401 -1.506
-5.908 -4.401 -1.506
-5.908 -4.401 -1.506
-5.350 -4.394 -0.955
-5.421 -4.657 -0.763
-4.763 -4.419 -0.344
-4.763 -4.419 -0.344
-4.732 -4.580 -0.151
-4.640 -4.690 0.048
-4.685 -4.427 -0.258
-4.685 -4.427 -0.258
-4.685 -4.427 -0.258
-4.685 -4.427 -0.258
-4.685 -4.427 -0.258
-4.685 -4.427 -0.258
-4.685 -4.427 -0.258
-4.640 -4.690 0.048
-4.685 -4.427 -0.258
-4.640 -4.690 0.048
-5.909 -4.401 -1.507
-4.141 -4.725 0.583
-4.141 -4.725 0.583
-4.141 -4.725 0.584
-4.141 -4.725 0.583
-4.141 -4.725 0.583
-4.141 -4.725 0.583
-5.434 -4.648 -0.785
-4.766 -4.511 -0.255
-4.766 -4.511 -0.255
-4.731 -4.580 -0.151
-5.909 -4.401 -1.507
-5.909 -4.401 -1.507
-4.141 -4.722 0.580
-5.353 -4.394 -0.958
-4.640 -4.690 0.048
-5.423 -4.657 -0.764
-4.732 -4.580 -0.151
-4.732 -4.580 -0.151
-4.732 -4.580 -0.151
-4.732 -4.580 -0.151
-4.732 -4.580 -0.151
-4.732 -4.580 -0.151
-4.732 -4.580 -0.151
-4.658 -4.594 -0.063
-4.658 -4.594 -0.063
-4.658 -4.594 -0.063
-4.736 -4.620 -0.116
-4.736 -4.620 -0.116
-4.736 -4.620 -0.116
-3.773 -3.820 0.048
-5.427 -4.649 -0.776
-4.520 -4.847 0.326
-4.640 -4.690 0.048
-4.142 -4.784 0.641
-5.434 -4.648 -0.785
-5.434 -4.648 -0.785
-5.434 -4.648 -0.785
-5.434 -4.648 -0.785
-5.909 -4.401 -1.507
-5.909 -4.401 -1.507
-4.768 -4.510 -0.258
-4.114 -4.722 0.608
-4.114 -4.722 0.608
-4.114 -4.722 0.608
-4.524 -4.847 0.321
-4.114 -4.722 0.608
-4.114 -4.722 0.608
-4.114 -4.722 0.608
-5.881 -4.387 -1.492
-5.881 -4.387 -1.492
-5.881 -4.387 -1.492
-5.881 -4.387 -1.492
-4.764 -4.419 -0.344
-4.764 -4.419 -0.344
-4.764 -4.419 -0.344
-4.764 -4.419 -0.344
-4.764 -4.419 -0.344
-4.764 -4.419 -0.344
-4.591 -4.720 0.128
-4.591 -4.720 0.128
-4.113 -4.719 0.606
-5.909 -4.401 -1.507
-5.909 -4.401 -1.507
-4.731 -4.577 -0.154
-4.731 -4.577 -0.154
-4.731 -4.577 -0.154
-4.115 -4.722 0.606
-4.141 -4.725 0.584
-6.016 -4.384 -1.630
-5.881 -4.387 -1.493
-5.881 -4.387 -1.493
-5.881 -4.387 -1.493
-5.881 -4.387 -1.493
-5.881 -4.387 -1.493
-4.141 -4.725 0.583
-5.434 -4.648 -0.785
-5.434 -4.648 -0.785
-5.434 -4.648 -0.785
-5.434 -4.648 -0.785
-4.527 -4.849 0.321
-5.909 -4.401 -1.507
-5.909 -4.401 -1.507
-5.909 -4.401 -1.507
-5.909 -4.401 -1.507
-5.353 -4.394 -0.958
-5.909 -4.401 -1.507
-4.731 -4.577 -0.154
-4.731 -4.577 -0.154
-4.731 -4.577 -0.154
-4.731 -4.577 -0.154
-4.657 -4.592 -0.064
-4.769 -4.749 -0.022
-5.423 -4.657 -0.765
-5.423 -4.657 -0.765
-5.909 -4.401 -1.507
-5.909 -4.401 -1.507
-5.909 -4.401 -1.507
-3.378 -3.985 0.608
-3.378 -3.985 0.608
-3.378 -3.985 0.608
-3.378 -3.985 0.608
-4.768 -4.510 -0.258
-4.660 -4.628 -0.031
-5.909 -4.401 -1.507
-4.685 -4.426 -0.258
-4.112 -4.722 0.609
-4.112 -4.722 0.609
-4.112 -4.722 0.609
-4.112 -4.722 0.609
-3.895 -3.915 0.022
-3.895 -3.915 0.022
-4.115 -4.722 0.607
-4.115 -4.722 0.607
-4.115 -4.722 0.607
-4.127 -4.949 0.822
-4.127 -4.949 0.822
-3.773 -3.820 0.048
-4.738 -4.515 -0.223
-5.909 -4.401 -1.507
-5.909 -4.401 -1.507
-5.909 -4.401 -1.507
-4.731 -4.577 -0.154
-4.769 -4.749 -0.022
-4.769 -4.749 -0.022
-4.769 -4.749 -0.022
-4.769 -4.749 -0.022
-4.116 -4.722 0.606
-5.909 -4.401 -1.507
-5.909 -4.401 -1.507
-4.114 -4.723 0.608
-4.141 -4.726 0.584
-4.115 -4.722 0.607
-4.115 -4.722 0.607
-3.895 -3.915 0.022
-3.895 -3.915 0.022
-3.895 -3.915 0.022
-4.685 -4.426 -0.258
-4.685 -4.426 -0.258
-4.112 -4.722 0.609
-4.112 -4.722 0.609
-4.522 -4.847 0.324
-4.522 -4.847 0.324
-4.112 -4.722 0.609
-3.618 -3.749 0.133
-4.660 -4.628 -0.032
-4.525 -4.848 0.321
-4.769 -4.749 -0.022
-4.768 -4.510 -0.258
-4.768 -4.510 -0.258
-4.768 -4.510 -0.258
-6.016 -4.384 -1.630
-4.114 -4.723 0.609
-4.114 -4.723 0.609
-4.116 -4.785 0.667
-4.769 -4.750 -0.021
-4.116 -4.723 0.606
-4.141 -4.726 0.584
-3.895 -3.915 0.022
-4.115 -4.723 0.607
-4.115 -4.723 0.607
-4.115 -4.723 0.607
-4.115 -4.723 0.607
-4.115 -4.723 0.608
-4.115 -4.723 0.607
-4.526 -4.849 0.321
-4.661 -4.628 -0.033
-4.485 -4.530 0.045
-4.114 -4.723 0.608
-4.764 -4.419 -0.344
-3.773 -3.819 0.047
-4.112 -4.785 0.671
-4.110 -4.722 0.611
-4.110 -4.722 0.611
-3.762 -4.395 0.633
-3.762 -4.395 0.633
-3.762 -4.395 0.633
-3.762 -4.395 0.633
-3.774 -3.832 0.059
-5.915 -4.408 -1.506
-4.784 -4.748 -0.038
-4.784 -4.748 -0.038
-4.784 -4.748 -0.038
-4.658 -4.629 -0.028
-5.866 -4.391 -1.474
-6.016 -4.384 -1.630
-5.353 -4.394 -0.958
-4.591 -4.720 0.128
-4.591 -4.720 0.128
-4.659 -4.627 -0.031
-3.704 -3.757 0.054
-3.704 -3.756 0.053
-4.788 -4.745 -0.045
-4.788 -4.745 -0.045
-6.016 -4.384 -1.630
-4.660 -4.628 -0.031
-4.731 -4.578 -0.153
-4.731 -4.578 -0.153
-4.115 -4.723 0.607
-4.115 -4.723 0.607