-15.458 -12.164 -3.328
-15.673 -12.112 -3.593
-16.207 -11.747 -4.544
-12.104 -12.400 0.302
-16.535 -11.723 -4.897
-13.432 -12.376 -1.078
-15.382 -12.184 -3.233
-15.382 -12.184 -3.233
-13.569 -12.337 -1.255
-15.691 -12.109 -3.614
-15.412 -12.179 -3.269
-13.514 -12.339 -1.199
-15.412 -12.179 -3.269
-13.514 -12.339 -1.199
-18.822 -12.946 -5.888
-11.675 -12.126 0.461
-15.638 -12.123 -3.548
-16.967 -11.565 -5.603
-13.512 -12.345 -1.191
-12.115 -12.403 0.293
-13.512 -12.345 -1.191
-12.115 -12.403 0.293
-13.512 -12.345 -1.191
-16.203 -11.753 -4.534
-13.512 -12.345 -1.191
-16.519 -11.729 -4.875
-15.373 -12.191 -3.217
-16.201 -11.755 -4.530
-15.372 -12.191 -3.217
-13.511 -12.345 -1.190
-16.964 -11.565 -5.600
-15.373 -12.191 -3.217
-17.346 -11.885 -5.565
-13.511 -12.345 -1.190
-13.511 -12.345 -1.190
-18.619 -12.819 -5.818
-16.964 -11.565 -5.600
-15.373 -12.191 -3.217
-16.964 -11.565 -5.600
-13.511 -12.345 -1.190
-16.201 -11.755 -4.530
-15.372 -12.191 -3.217
-11.910 -11.119 -0.798
-16.311 -11.725 -4.680
-15.217 -11.150 -4.371
-18.627 -12.817 -5.829
-13.520 -12.346 -1.198
-15.404 -12.198 -3.243
-16.990 -11.564 -5.628
-16.594 -11.700 -4.988
-15.414 -12.197 -3.254
-18.630 -12.816 -5.832
-15.666 -12.132 -3.569
-16.995 -11.563 -5.634
-13.521 -12.346 -1.199
-16.623 -11.697 -5.020
-16.594 -11.700 -4.989
-18.630 -12.816 -5.832
-17.406 -12.471 -5.140
-15.424 -12.189 -3.271
-16.623 -11.697 -5.020
-13.521 -12.346 -1.199
-12.289 -9.489 -3.032
-16.993 -11.564 -5.631
-11.684 -12.124 0.449
-15.411 -12.197 -3.251
-16.993 -11.564 -5.631
-16.623 -11.697 -5.020
-15.414 -12.197 -3.254
-15.190 -11.141 -4.495
-16.993 -11.564 -5.631
-16.955 -11.567 -5.583
-18.630 -12.816 -5.832
-15.666 -12.132 -3.569
-16.623 -11.697 -5.020
-16.623 -11.697 -5.020
-12.119 -12.400 0.285
-15.190 -11.141 -4.496
-16.993 -11.564 -5.631
-16.955 -11.567 -5.583
-13.521 -12.346 -1.198
-13.521 -12.346 -1.198
-13.978 -10.735 -3.846
-13.521 -12.346 -1.199
-15.603 -12.121 -3.516
-18.633 -12.816 -5.836
-17.130 -10.831 -6.391
-16.272 -11.726 -4.640
-16.954 -11.567 -5.581
-18.628 -12.817 -5.830
-16.622 -11.697 -5.019
-17.406 -12.472 -5.138
-15.417 -12.196 -3.257
-18.646 -12.825 -5.839
-15.423 -12.190 -3.269
-18.631 -12.816 -5.833
-16.956 -11.567 -5.584
-15.417 -12.196 -3.257
-17.405 -12.464 -5.145
-12.119 -12.400 0.285
-11.684 -12.123 0.449
-13.519 -12.348 -1.195
-18.644 -12.825 -5.836
-16.954 -11.567 -5.581
-18.644 -12.825 -5.836
-18.644 -12.825 -5.836
-16.954 -11.567 -5.581
-16.993 -11.564 -5.632
-15.605 -12.120 -3.520
-16.995 -11.563 -5.634
-15.664 -12.132 -3.566
-13.506 -12.355 -1.172
-17.400 -12.476 -5.129
-17.392 -11.883 -5.611
-16.806 -11.561 -5.439
-16.593 -11.700 -4.987
-15.413 -12.197 -3.253
-15.413 -12.197 -3.253
-18.646 -12.826 -5.837
-15.419 -12.190 -3.265
-12.290 -9.488 -3.032
-15.896 -11.095 -5.114
-13.504 -12.355 -1.170
-16.990 -11.564 -5.628
-16.593 -11.700 -4.987
-16.993 -11.564 -5.631
-12.289 -9.489 -3.031
-13.521 -12.346 -1.198
-13.505 -12.355 -1.171
-16.956 -11.567 -5.583
-15.190 -11.141 -4.496
-16.993 -11.564 -5.631
-18.630 -12.817 -5.832
-18.646 -12.826 -5.837
-18.646 -12.826 -5.838
-15.412 -12.197 -3.252
-15.412 -12.197 -3.252
-16.274 -11.724 -4.644
-15.412 -12.197 -3.252
-12.289 -9.489 -3.031
-12.289 -9.489 -3.031
-13.521 -12.346 -1.198
-16.313 -11.724 -4.682
-18.553 -12.852 -5.717
-18.646 -12.826 -5.838
-18.646 -12.826 -5.838
-15.412 -12.197 -3.252
-16.313 -11.724 -4.682
-18.646 -12.826 -5.838
-18.552 -12.852 -5.716
-16.993 -11.564 -5.631
-16.274 -11.724 -4.644
-16.274 -11.724 -4.644
-15.412 -12.197 -3.253
-17.007 -11.567 -5.633
-15.412 -12.197 -3.253
-15.419 -12.190 -3.264
-16.275 -11.724 -4.644
-16.955 -11.567 -5.582
-16.993 -11.564 -5.631
-17.362 -12.431 -5.131
-15.412 -12.197 -3.252
-15.412 -12.197 -3.252
-13.541 -12.353 -1.211
-16.534 -10.977 -5.633
-13.504 -12.355 -1.169
-12.129 -12.405 0.281
-15.398 -12.200 -3.235
-16.537 -10.977 -5.637
-12.288 -9.489 -3.029
-15.185 -11.143 -4.489
-16.311 -11.725 -4.679
-16.181 -11.728 -4.546
-16.273 -11.725 -4.641
-15.408 -12.192 -3.252
-16.953 -11.567 -5.580
-18.635 -12.796 -5.860
-15.152 -11.153 -4.441
-17.387 -11.885 -5.604
-18.549 -12.852 -5.713
-18.549 -12.852 -5.713
-16.273 -11.725 -4.641
-15.810 -11.094 -4.774
-18.643 -12.826 -5.834
-15.237 -11.149 -4.393
-18.550 -12.852 -5.713
-18.643 -12.826 -5.835
-15.408 -12.192 -3.252
-15.403 -12.198 -3.242
-15.810 -11.094 -4.774
-16.179 -11.729 -4.543
-18.550 -12.852 -5.713
-16.273 -11.725 -4.641
-16.311 -11.725 -4.679
-15.810 -11.094 -4.774
-15.397 -12.200 -3.234
-15.408 -12.192 -3.252
-16.273 -11.725 -4.642
-16.311 -11.725 -4.679
-16.273 -11.725 -4.641
-16.990 -11.564 -5.629
-18.628 -12.817 -5.829
-16.990 -11.564 -5.629
-18.549 -12.852 -5.713
-11.683 -12.124 0.451
-13.253 -9.310 -4.430
-16.311 -11.725 -4.679
-16.272 -11.725 -4.640
-12.119 -12.400 0.287
-15.402 -12.199 -3.240
-15.402 -12.199 -3.240
-16.311 -11.725 -4.679
-15.402 -12.199 -3.240
-16.801 -11.562 -5.433
-16.273 -11.725 -4.641
-18.549 -12.852 -5.712
-12.278 -9.491 -3.018
-15.408 -12.192 -3.252
-18.642 -12.826 -5.833
-18.642 -12.826 -5.833
-13.561 -12.353 -1.228
-12.401 -9.453 -3.182
-18.644 -12.826 -5.836
-16.274 -11.725 -4.642
-18.551 -12.851 -5.716
-16.992 -11.564 -5.630
-18.550 -12.852 -5.713
-12.118 -12.400 0.287
-18.459 -12.873 -5.601
-18.602 -12.831 -5.788
-15.167 -11.143 -4.469
-18.374 -12.968 -5.418
-18.627 -12.787 -5.861
-18.547 -12.851 -5.711
-16.954 -11.567 -5.581
-13.523 -12.346 -1.201
-18.640 -12.825 -5.833
-18.547 -12.851 -5.711
-18.640 -12.825 -5.833
-16.334 -11.715 -4.712
-13.523 -12.346 -1.201
-16.622 -11.692 -5.024
-17.044 -11.564 -5.681
-15.441 -12.187 -3.292
-13.523 -12.346 -1.201
-16.298 -11.720 -4.671
-16.335 -11.715 -4.713
-18.641 -12.825 -5.834
-15.441 -12.187 -3.291
-16.287 -11.715 -4.666
-15.819 -11.082 -4.794
-18.547 -12.851 -5.712
-15.458 -12.180 -3.314
-16.335 -11.715 -4.713
-15.192 -11.140 -4.499
-16.335 -11.715 -4.713
-12.123 -12.398 0.280
-16.287 -11.715 -4.666
-17.301 -11.877 -5.527
-15.844 -11.070 -4.832
-13.522 -12.346 -1.200
-12.122 -12.398 0.282
-16.618 -11.693 -5.019
-18.536 -12.855 -5.697
-16.287 -11.715 -4.666
-18.548 -12.851 -5.712
-18.548 -12.851 -5.712
-12.219 -12.412 0.197
-12.287 -9.489 -3.029
-16.991 -11.564 -5.629
-13.522 -12.347 -1.199
-16.798 -11.564 -5.428
-15.458 -12.180 -3.314
-18.546 -12.851 -5.710
-17.004 -11.567 -5.629
-18.546 -12.851 -5.711
-18.546 -12.851 -5.711
-15.844 -11.070 -4.832
-13.579 -12.344 -1.258
-18.541 -12.853 -5.703
-15.216 -11.147 -4.372
-15.841 -11.070 -4.828
-16.563 -10.966 -5.671
-18.539 -12.854 -5.701
-13.523 -12.346 -1.200
-18.638 -12.825 -5.831
-13.523 -12.346 -1.200
-18.638 -12.825 -5.831
-16.016 -11.905 -4.211
-17.296 -11.878 -5.521
-16.333 -11.716 -4.710
-12.290 -9.489 -3.033
-18.623 -12.816 -5.826
-14.966 -11.137 -4.125
-16.628 -11.691 -5.031
-15.442 -12.187 -3.292
-18.632 -12.794 -5.858
-16.288 -11.715 -4.666
-13.256 -9.309 -4.433
-16.335 -11.715 -4.713
-12.281 -9.490 -3.022
-18.545 -12.852 -5.709
-18.624 -12.816 -5.826
-15.844 -11.070 -4.831
-18.546 -12.851 -5.710
-18.546 -12.851 -5.710
-16.334 -11.715 -4.712
-18.624 -12.816 -5.826
-13.564 -12.352 -1.232
-13.524 -12.345 -1.202
-18.645 -12.803 -5.861
-15.845 -11.070 -4.833
-17.041 -11.564 -5.678
-15.436 -12.189 -3.284
-16.992 -11.564 -5.630
-12.291 -9.488 -3.034
-16.992 -11.564 -5.630
-16.805 -11.561 -5.437
-17.365 -12.428 -5.137
-18.626 -12.816 -5.829
-13.564 -12.352 -1.232
-13.580 -12.343 -1.260
-16.800 -11.564 -5.430
-15.841 -11.070 -4.829
-13.579 -12.343 -1.259
-17.071 -11.567 -5.709
-18.629 -12.794 -5.855
-13.522 -12.346 -1.200
-18.541 -12.853 -5.703
-15.841 -11.070 -4.828
-16.992 -11.564 -5.630
-12.123 -12.398 0.280
-17.074 -11.567 -5.712
-13.580 -12.343 -1.259
-18.541 -12.853 -5.703
-13.523 -12.346 -1.201
-16.287 -11.715 -4.666
-18.641 -12.825 -5.834
-18.632 -12.794 -5.858
-13.523 -12.346 -1.202
-16.992 -11.564 -5.630
-18.645 -12.803 -5.861
-18.548 -12.851 -5.712
-18.626 -12.816 -5.829
-18.548 -12.851 -5.713
-18.645 -12.803 -5.861
-18.626 -12.816 -5.829
-18.548 -12.851 -5.713
-18.548 -12.851 -5.713
-13.580 -12.343 -1.259
-16.299 -11.720 -4.672
-18.626 -12.816 -5.829
-15.845 -11.070 -4.833
-17.366 -12.425 -5.139
-13.580 -12.343 -1.259
-18.541 -12.853 -5.704
-18.645 -12.803 -5.861
-16.992 -11.564 -5.630
-16.256 -11.719 -4.631
-15.395 -12.170 -3.261
-13.315 -9.306 -4.502
-16.287 -11.715 -4.665
-16.334 -11.715 -4.712
-15.191 -11.141 -4.497
-18.545 -12.830 -5.732
-13.520 -12.348 -1.196
-16.249 -11.721 -4.622
-15.840 -11.071 -4.827
-17.294 -11.879 -5.517
-15.441 -12.187 -3.291
-17.002 -11.568 -5.628
-18.630 -12.794 -5.856
-13.520 -12.347 -1.196
-17.041 -11.564 -5.678
-17.074 -11.567 -5.712
-11.336 -12.194 0.872
-15.441 -12.187 -3.291
-18.626 -12.816 -5.828
-13.580 -12.343 -1.259
-18.541 -12.853 -5.704
-14.714 -11.194 -4.127
-13.523 -12.346 -1.201
-18.540 -12.853 -5.703
-17.044 -11.564 -5.681
-12.291 -9.488 -3.034
-15.441 -12.187 -3.291
-15.458 -12.180 -3.314
-17.005 -11.567 -5.631
-13.580 -12.343 -1.259
-15.841 -11.070 -4.828
-13.564 -12.352 -1.231
-13.579 -12.343 -1.259
-18.525 -12.845 -5.697
-13.524 -12.346 -1.202
-16.335 -11.715 -4.713
-16.335 -11.715 -4.713
-17.005 -11.567 -5.631
-18.547 -12.851 -5.712
-15.096 -11.171 -4.365
-12.123 -12.397 0.280
-16.295 -11.721 -4.667
-12.207 -12.408 0.205
-13.522 -12.346 -1.200
-18.631 -12.794 -5.857
-18.547 -12.851 -5.712
-18.547 -12.851 -5.712
-15.441 -12.187 -3.291
-18.546 -12.852 -5.710
-15.844 -11.070 -4.832
-18.546 -12.852 -5.710
-15.844 -11.070 -4.832
-15.190 -11.141 -4.495
-13.579 -12.343 -1.258
-17.375 -11.881 -5.599
-18.547 -12.851 -5.712
-15.395 -12.170 -3.261
-13.565 -12.352 -1.232
-18.542 -12.853 -5.704
-13.316 -9.306 -4.503
-15.844 -11.070 -4.832
-13.519 -12.347 -1.196
-15.391 -12.171 -3.255
-16.989 -11.564 -5.627
-18.643 -12.804 -5.859
-16.803 -11.561 -5.435
-13.315 -9.306 -4.502
-13.315 -9.306 -4.502
-18.546 -12.851 -5.711
-13.580 -12.343 -1.259
-13.523 -12.346 -1.201
-13.508 -12.354 -1.174
-17.005 -11.567 -5.631
-18.627 -12.787 -5.862
-17.005 -11.567 -5.630
-18.547 -12.851 -5.712
-17.005 -11.567 -5.630
-18.547 -12.851 -5.712
-18.547 -12.852 -5.711
-18.632 -12.794 -5.858
-15.193 -11.140 -4.499
-15.394 -12.170 -3.260
-13.580 -12.343 -1.259
-18.632 -12.794 -5.858
-18.626 -12.816 -5.829
-13.580 -12.343 -1.259
-18.541 -12.853 -5.704
-18.626 -12.816 -5.829
-18.548 -12.851 -5.713
-17.301 -11.877 -5.527
-18.548 -12.851 -5.713
-18.641 -12.825 -5.834
-17.074 -11.567 -5.712
-16.304 -11.719 -4.678
-18.547 -12.849 -5.714
-16.923 -11.563 -5.565
-11.692 -12.123 0.441
-16.563 -11.652 -5.000
-17.410 -11.876 -5.634
-13.446 -12.376 -1.092
-16.931 -11.564 -5.572
-18.661 -12.802 -5.878
-15.451 -12.157 -3.329
-17.018 -11.565 -5.645
-18.563 -12.849 -5.730
-16.349 -11.706 -4.736
-17.018 -11.565 -5.645
-12.128 -12.394 0.271
-17.018 -11.565 -5.645
-16.818 -11.559 -5.452
-18.563 -12.849 -5.730
-18.563 -12.849 -5.730
-13.319 -9.306 -4.507
-17.054 -11.563 -5.692
-13.524 -12.347 -1.201
-18.659 -12.802 -5.876
-16.816 -11.559 -5.450
-13.584 -12.342 -1.264
-18.557 -12.851 -5.722
-18.558 -12.830 -5.746
-16.313 -11.711 -4.695
-18.540 -12.814 -5.744
-16.263 -11.711 -4.645
-13.584 -12.342 -1.264
-16.300 -11.706 -4.687
-18.648 -12.793 -5.875
-18.564 -12.849 -5.731
-18.564 -12.849 -5.731
-16.349 -11.706 -4.736
-13.319 -9.305 -4.508
-13.584 -12.342 -1.264
-16.931 -11.564 -5.571
-15.448 -12.159 -3.324
-13.527 -12.345 -1.206
-12.129 -12.394 0.271
-14.944 -11.134 -4.102
-13.584 -12.342 -1.264
-18.557 -12.851 -5.722
-16.300 -11.706 -4.687
-18.661 -12.802 -5.879
-13.584 -12.342 -1.264
-18.661 -12.802 -5.879
-12.297 -9.487 -3.041
-17.018 -11.565 -5.645
-16.318 -11.710 -4.702
-18.564 -12.849 -5.730
-18.661 -12.802 -5.879
-11.138 -7.141 -4.275
-15.493 -12.176 -3.355
-14.942 -11.135 -4.100
-13.584 -12.342 -1.264
-18.658 -12.802 -5.876
-13.584 -12.342 -1.264
-13.584 -12.342 -1.264
-17.016 -11.566 -5.643
-14.942 -11.135 -4.100
-18.658 -12.802 -5.876
-12.295 -9.488 -3.038
-14.942 -11.135 -4.100
-17.016 -11.566 -5.643
-15.493 -12.176 -3.355
-17.016 -11.566 -5.643
-17.085 -11.566 -5.724
-18.561 -12.850 -5.727
-18.654 -12.795 -5.879
-15.110 -11.166 -4.385
-13.584 -12.342 -1.264
-16.294 -11.706 -4.682
-13.584 -12.342 -1.264
-16.274 -11.689 -4.674
-18.562 -12.849 -5.729
-12.129 -12.394 0.270
-16.304 -11.712 -4.685
-17.085 -11.566 -5.724
-14.942 -11.135 -4.100
-16.866 -11.560 -5.498
-18.561 -12.849 -5.727
-16.935 -11.561 -5.578
-16.294 -11.706 -4.681
-18.654 -12.795 -5.879
-18.658 -12.802 -5.876
-18.658 -12.802 -5.876
-17.055 -11.563 -5.693
-13.584 -12.342 -1.264
-15.213 -11.149 -4.510
-15.207 -11.135 -4.520
-18.561 -12.828 -5.749
-13.317 -9.306 -4.505
-16.936 -11.561 -5.579
-16.314 -11.710 -4.697
-17.045 -11.569 -5.672
-15.493 -12.176 -3.355
-18.658 -12.802 -5.875
-18.658 -12.802 -5.875
-13.317 -9.306 -4.505
-17.085 -11.566 -5.724
-13.584 -12.342 -1.264
-17.055 -11.563 -5.693
-16.313 -11.710 -4.696
-15.207 -11.149 -4.363
-17.084 -11.566 -5.723
-18.657 -12.802 -5.874
-18.652 -12.795 -5.877
-18.657 -12.802 -5.874
-16.934 -11.561 -5.577
-15.485 -12.180 -3.342
-18.644 -12.793 -5.871
-16.934 -11.561 -5.577
-18.543 -12.812 -5.749
-12.407 -9.452 -3.190
-12.407 -9.451 -3.190
-16.933 -11.562 -5.575
-15.491 -12.177 -3.351
-17.044 -11.570 -5.671
-15.427 -12.167 -3.296
-16.313 -11.710 -4.696
-18.645 -12.793 -5.872
-18.645 -12.793 -5.872
-12.345 -9.466 -3.107
-13.318 -9.305 -4.507
-13.318 -9.305 -4.507
-12.408 -9.451 -3.192
-18.660 -12.802 -5.878
-13.584 -12.342 -1.265
-13.584 -12.342 -1.265
-16.308 -11.711 -4.690
-17.046 -11.569 -5.673
-18.659 -12.802 -5.876
-18.544 -12.812 -5.750
-16.294 -11.706 -4.682
-12.407 -9.451 -3.191
-18.654 -12.795 -5.879
-12.407 -9.451 -3.191
-13.529 -12.344 -1.209
-18.654 -12.795 -5.879
-16.314 -11.710 -4.697
-18.545 -12.841 -5.721
-18.659 -12.802 -5.876
-16.935 -11.561 -5.578
-16.935 -11.561 -5.578
-15.842 -11.054 -4.846
-13.583 -12.342 -1.263
-15.211 -11.149 -4.507
-12.406 -9.452 -3.189
-18.651 -12.795 -5.876
-11.138 -7.142 -4.273
-15.451 -12.157 -3.329
-13.317 -9.306 -4.505
-18.657 -12.802 -5.874
-13.584 -12.342 -1.264
-14.954 -11.135 -4.111
-13.584 -12.342 -1.264
-13.584 -12.342 -1.264
-13.584 -12.342 -1.264
-13.527 -12.345 -1.206
-13.584 -12.342 -1.264
-17.085 -11.566 -5.724
-17.085 -11.566 -5.724
-16.935 -11.562 -5.578
-15.494 -12.176 -3.356
-12.129 -12.394 0.271
-16.254 -11.712 -4.635
-16.303 -11.712 -4.684
-12.407 -9.452 -3.190
-15.487 -12.179 -3.345
-18.654 -12.795 -5.879
-13.527 -12.345 -1.206
-16.929 -11.564 -5.569
-16.929 -11.564 -5.569
-12.129 -12.394 0.271
-16.925 -11.566 -5.563
-18.533 -12.816 -5.735
-12.407 -9.451 -3.191
-12.407 -9.451 -3.191
-13.533 -12.354 -1.200
-12.129 -12.394 0.270
-13.584 -12.342 -1.264
-11.340 -12.187 0.860
-17.045 -11.569 -5.672
-13.527 -12.345 -1.206
-18.645 -12.793 -5.872
-16.313 -11.710 -4.696
-18.645 -12.793 -5.872
-16.935 -11.561 -5.578
-13.584 -12.342 -1.264
-16.257 -11.712 -4.639
-15.426 -12.168 -3.295
-16.929 -11.564 -5.569
-14.954 -11.136 -4.111
-17.045 -11.569 -5.672
-15.493 -12.176 -3.355
-17.055 -11.563 -5.692
-14.958 -11.135 -4.115
-15.493 -12.176 -3.355
-16.294 -11.706 -4.681
-13.584 -12.342 -1.264
-12.345 -9.466 -3.107
-18.563 -12.828 -5.751
-16.934 -11.562 -5.576
-13.530 -12.355 -1.196
-18.554 -12.851 -5.719
-15.207 -11.135 -4.520
-16.262 -11.711 -4.645
-16.262 -11.711 -4.645
-17.016 -11.566 -5.643
-13.317 -9.306 -4.505
-15.493 -12.176 -3.354
-13.584 -12.342 -1.263
-16.257 -11.712 -4.639
-16.294 -11.706 -4.681
-15.430 -12.166 -3.301
-17.016 -11.566 -5.643
-17.045 -11.569 -5.672
-16.935 -11.562 -5.578
-18.561 -12.849 -5.727
-16.935 -11.562 -5.578
-17.045 -11.569 -5.672
-18.654 -12.795 -5.879
-15.367 -11.141 -4.277
-15.493 -12.176 -3.355
-12.407 -9.452 -3.190
-12.301 -9.486 -3.046
-17.045 -11.569 -5.672
-15.429 -12.166 -3.300
-13.573 -12.336 -1.259
-18.637 -12.798 -5.859
-10.959 -7.200 -4.024
-16.905 -11.563 -5.546
-16.905 -11.563 -5.546
-12.392 -9.461 -3.165
-17.054 -11.567 -5.691
-17.413 -11.877 -5.636
-16.985 -11.567 -5.610
-15.444 -12.174 -3.306
-15.593 -12.071 -3.556
-16.312 -11.711 -4.694
-12.129 -12.394 0.271
-18.655 -12.795 -5.880
-13.317 -9.306 -4.505
-18.561 -12.849 -5.728
-17.434 -11.876 -5.658
-18.660 -12.802 -5.877
-18.660 -12.802 -5.877
-18.546 -12.812 -5.752
-12.294 -9.488 -3.038
-18.655 -12.795 -5.881
-16.936 -11.561 -5.579
-16.263 -11.711 -4.646
-16.936 -11.561 -5.579
-18.655 -12.795 -5.881
-13.527 -12.345 -1.206
-18.655 -12.795 -5.881
-18.655 -12.795 -5.881
-17.146 -12.931 -4.394
-18.660 -12.802 -5.877
-18.660 -12.802 -5.877
-17.017 -11.565 -5.644
-18.655 -12.795 -5.881
-18.660 -12.802 -5.877
-18.563 -12.849 -5.729
-12.129 -12.394 0.271
-17.017 -11.565 -5.644
-18.655 -12.795 -5.881
-13.584 -12.342 -1.264
-18.655 -12.795 -5.881
-17.046 -11.569 -5.673
-12.294 -9.488 -3.037
-17.046 -11.569 -5.673
-18.660 -12.802 -5.877
-16.818 -11.559 -5.451
-18.655 -12.795 -5.881
-16.313 -11.711 -4.695
-18.655 -12.795 -5.880
-13.527 -12.345 -1.206
-13.584 -12.342 -1.264
-15.428 -12.168 -3.298
-18.556 -12.851 -5.721
-16.930 -11.564 -5.571
-17.017 -11.565 -5.644
-13.584 -12.342 -1.264
-18.660 -12.802 -5.878
-13.527 -12.345 -1.206
-16.930 -11.564 -5.571
-13.530 -12.355 -1.196
-12.213 -12.404 0.196
-18.655 -12.795 -5.881
-13.584 -12.342 -1.264
-16.257 -11.712 -4.638
-13.584 -12.342 -1.264
-18.660 -12.802 -5.877
-16.936 -11.561 -5.579
-16.293 -11.707 -4.680
-16.293 -11.707 -4.680
-12.293 -9.488 -3.036
-18.562 -12.828 -5.751
-12.129 -12.394 0.271
-17.046 -11.569 -5.673
-16.312 -11.711 -4.695
-16.936 -11.561 -5.579
-17.046 -11.569 -5.673
-18.655 -12.795 -5.880
-24.997 -9.504 -15.737
-25.280 -9.502 -16.020
-10.764 -7.983 -2.985
-24.014 -7.647 -16.379
-24.500 -9.571 -15.166
-23.614 -7.344 -16.833
-22.814 -7.818 -15.101
-23.614 -7.344 -16.833
-24.349 -7.587 -16.778
-15.642 -8.241 -7.414
-23.614 -7.344 -16.833
-24.783 -9.568 -15.449
-12.502 -6.746 -5.761
-24.783 -9.568 -15.449
-12.465 -6.811 -5.657
-24.783 -9.568 -15.449
-23.614 -7.344 -16.833
-22.814 -7.818 -15.101
-24.349 -7.587 -16.778
-24.349 -7.587 -16.778
-23.614 -7.344 -16.833
-23.614 -7.344 -16.833
-24.349 -7.587 -16.778
-24.500 -9.571 -15.166
-12.502 -6.746 -5.761
-24.349 -7.587 -16.778
-24.783 -9.568 -15.449
-24.349 -7.587 -16.778
-24.349 -7.587 -16.778
-24.500 -9.571 -15.166
-15.642 -8.240 -7.415
-24.783 -9.568 -15.449
-24.783 -9.568 -15.449
-24.349 -7.587 -16.778
-12.101 -6.905 -5.198
-8.150 -8.504 0.376
-22.397 -7.871 -14.627
-24.011 -7.647 -16.376
-23.873 -7.636 -16.250
-22.397 -7.871 -14.627
-7.888 -8.606 0.741
-24.500 -9.571 -15.166
-15.642 -8.240 -7.415
-24.500 -9.571 -15.166
-15.278 -4.791 -11.031
-24.500 -9.571 -15.166
-15.642 -8.240 -7.415
-21.476 -6.689 -14.833
-24.500 -9.571 -15.166
-24.482 -7.599 -16.898
-23.614 -7.344 -16.833
-12.465 -6.811 -5.657
-10.844 -8.365 -2.500
-13.300 -8.616 -4.695
-13.392 -8.624 -4.779
-7.863 -8.493 0.651
-24.500 -9.571 -15.166
-24.349 -7.587 -16.778
-24.349 -7.587 -16.778
-24.500 -9.571 -15.166
-24.500 -9.571 -15.166
-8.999 -7.498 -1.565
-15.278 -4.791 -11.031
-24.350 -7.587 -16.779
-24.501 -9.571 -15.167
-10.374 -5.605 -4.763
-15.053 -10.041 -5.096
-23.870 -7.637 -16.246
-24.501 -9.571 -15.167
-24.350 -7.587 -16.778
-12.424 -6.750 -5.677
-24.783 -9.568 -15.450
-24.350 -7.587 -16.778
-15.495 -4.754 -11.297
-9.248 -7.228 -2.022
-23.889 -7.634 -16.268
-12.111 -6.892 -5.221
-24.502 -9.571 -15.168
-24.483 -7.598 -16.900
-24.784 -9.568 -15.451
-24.350 -7.587 -16.779
-12.466 -6.811 -5.658
-10.846 -8.364 -2.502
-7.907 -8.549 0.665
-13.231 -8.616 -4.626
-9.257 -6.293 -2.969
-22.346 -7.877 -14.570
-9.249 -6.289 -2.965
-23.832 -7.644 -16.201
-23.976 -7.654 -16.334
-23.832 -7.644 -16.201
-10.062 -8.014 -2.031
-8.057 -8.501 0.466
-7.977 -8.486 0.530
-8.057 -8.501 0.466
-13.518 -8.800 -5.216
-24.500 -9.571 -15.166
-12.528 -6.746 -5.784
-7.816 -8.411 0.617
-13.639 -8.586 -5.066
-7.327 -7.865 0.559
-24.783 -9.568 -15.449
-12.528 -6.746 -5.784
-14.254 -8.699 -5.695
-14.254 -8.699 -5.695
-14.254 -8.699 -5.695
-14.239 -8.689 -5.686
-11.010 -8.374 -2.654
-7.979 -8.488 0.530
-13.959 -8.728 -5.371
-13.959 -8.728 -5.371
-7.906 -8.549 0.666
-11.995 -7.803 -4.217
-22.398 -7.871 -14.629
-7.900 -8.545 0.667
-9.211 -7.223 -1.991
-24.502 -9.571 -15.168
-8.730 -7.544 -1.206
-23.883 -7.635 -16.262
-24.499 -9.571 -15.166
-24.482 -7.599 -16.898
-15.495 -4.754 -11.297
-23.614 -7.344 -16.833
-21.476 -6.689 -14.833
-8.089 -8.434 0.328
-13.224 -8.618 -4.617
-10.061 -8.014 -2.030
-10.120 -5.916 -4.713
-22.352 -7.876 -14.578
-10.063 -8.014 -2.032
-9.256 -6.292 -2.969
-15.089 -10.040 -5.133
-15.086 -10.042 -5.128
-10.843 -8.364 -2.500
-13.401 -8.622 -4.789
-15.088 -10.040 -5.133
-7.977 -8.486 0.531
-10.809 -8.354 -2.478
-22.382 -7.873 -14.610
-23.353 -7.335 -16.551
-13.171 -8.693 -4.491
-23.659 -7.644 -16.029
-15.278 -4.791 -11.031
-23.614 -7.344 -16.834
-23.802 -9.697 -14.370
-12.344 -6.846 -5.503
-13.231 -8.616 -4.626
-23.875 -7.636 -16.252
-11.550 -8.285 -3.279
-24.499 -9.571 -15.165
-12.263 -6.840 -5.427
-22.975 -7.168 -15.990
-24.029 -7.609 -16.435
-23.517 -7.349 -16.725
-24.397 -7.607 -16.805
-24.265 -7.595 -16.685
-24.265 -7.595 -16.685
-10.947 -8.407 -2.559
-12.221 -6.819 -5.406
-15.032 -10.048 -5.070
-15.035 -10.046 -5.075
-8.954 -7.590 -1.358
-15.035 -10.046 -5.075
-23.792 -7.644 -16.162
-23.701 -9.702 -14.262
-24.399 -9.576 -15.059
-10.316 -5.665 -4.645
-13.680 -8.590 -5.102
-7.236 -7.821 0.607
-24.272 -7.594 -16.694
-24.682 -9.573 -15.342
-9.820 -7.402 -2.449
-15.047 -10.046 -5.089
-7.975 -8.489 0.535
-23.795 -7.643 -16.164
-17.029 -7.729 -9.299
-12.290 -6.855 -5.439
-7.280 -7.823 0.564
-24.398 -9.576 -15.058
-24.404 -7.605 -16.814
-24.398 -9.576 -15.058
-24.398 -9.576 -15.058
-24.681 -9.574 -15.341
-9.104 -7.896 -1.209
-13.288 -8.616 -4.683
-13.218 -8.617 -4.612
-8.052 -8.503 0.473
-11.988 -7.803 -4.209
-10.838 -8.366 -2.492
-13.218 -8.617 -4.612
-7.959 -8.552 0.615
-7.899 -8.550 0.673
-9.725 -7.460 -2.421
-24.272 -7.594 -16.693
-24.272 -7.594 -16.694
-25.283 -9.503 -16.022
-15.641 -8.241 -7.413
-24.774 -9.570 -15.437
-15.641 -8.241 -7.413
-13.637 -8.586 -5.064
-13.702 -8.587 -5.127
-15.134 -10.037 -5.176
-22.380 -7.873 -14.609
-24.491 -9.573 -15.154
-24.491 -9.573 -15.154
-24.491 -9.573 -15.154
-12.460 -6.813 -5.651
-14.382 -8.011 -6.385
-14.230 -8.690 -5.675
-24.773 -9.570 -15.437
-24.491 -9.573 -15.154
-23.913 -9.687 -14.490
-23.872 -7.637 -16.248
-24.491 -9.573 -15.154
-24.336 -7.589 -16.763
-23.599 -7.345 -16.816
-11.550 -8.285 -3.278
-13.237 -8.614 -4.634
-9.257 -7.224 -2.034
-24.492 -9.572 -15.156
-12.097 -6.906 -5.192
-13.228 -8.616 -4.623
-7.980 -8.488 0.529
-7.862 -8.493 0.652
-9.258 -6.292 -2.972
-15.086 -10.039 -5.129
-23.856 -7.639 -16.230
-23.913 -9.687 -14.491
-12.270 -6.830 -5.442
-13.299 -8.616 -4.694
-10.123 -5.916 -4.715
-8.060 -8.502 0.464
-15.082 -10.039 -5.125
-7.965 -8.551 0.609
-13.300 -8.616 -4.695
-13.987 -8.055 -5.943
-13.229 -8.616 -4.624
-7.941 -8.362 0.439
-7.980 -8.488 0.529
-15.079 -10.039 -5.121
-9.286 -7.410 -1.899
-8.058 -8.502 0.466
-8.075 -8.362 0.304
-13.299 -8.616 -4.694
-7.863 -8.493 0.651
-10.123 -5.916 -4.715
-13.946 -8.731 -5.352
-7.284 -7.820 0.557
-7.907 -8.548 0.664
-10.123 -5.916 -4.715
-13.230 -8.616 -4.625
-11.040 -7.936 -3.300
-15.076 -10.042 -5.117
-13.391 -8.624 -4.777
-13.948 -8.730 -5.358
-13.948 -8.730 -5.358
-10.115 -6.265 -5.100
-20.039 -6.426 -14.020
-10.219 -6.276 -4.225
-22.413 -7.869 -14.646
-15.053 -4.407 -10.880
-7.905 -8.550 0.667
-9.259 -6.291 -2.973
-15.090 -10.037 -5.133
-13.531 -8.789 -5.229
-13.219 -8.618 -4.612
-13.219 -8.618 -4.612
-14.010 -8.057 -5.963
-22.384 -7.873 -14.613
-13.384 -8.869 -4.570
-7.985 -8.395 0.427
-13.300 -8.666 -4.642
-7.224 -7.866 0.663
-23.856 -7.639 -16.231
-10.952 -8.404 -2.567
-12.270 -6.830 -5.442
-13.229 -8.616 -4.624
-14.055 -8.052 -6.013
-7.905 -8.549 0.666
-13.930 -8.723 -5.343
-13.229 -8.616 -4.624
-13.930 -8.723 -5.343
-13.951 -8.729 -5.362
-24.491 -9.573 -15.154
-24.491 -9.573 -15.154
-12.525 -6.747 -5.780
-9.285 -7.410 -1.898
-13.229 -8.616 -4.624
-13.955 -8.728 -5.366
-15.072 -10.042 -5.112
-8.577 -7.585 -0.981
-13.394 -8.624 -4.781
-7.981 -8.488 0.528
-9.257 -6.293 -2.970
-14.011 -8.056 -5.965
-10.113 -6.266 -5.098
-10.811 -8.354 -2.480
-13.947 -8.730 -5.357
-7.906 -8.549 0.665
-13.956 -8.728 -5.367
-8.069 -8.490 0.442
-13.229 -8.616 -4.624
-11.009 -8.374 -2.654
-13.230 -8.616 -4.624
-8.058 -8.502 0.466
-7.980 -8.488 0.529
-10.809 -8.354 -2.477
-10.122 -5.917 -4.714
-8.060 -8.502 0.464
-10.045 -5.850 -4.288
-8.060 -8.502 0.464
-8.060 -8.503 0.465
-13.301 -8.615 -4.696
-9.285 -7.410 -1.898
-14.061 -8.051 -6.020
-7.980 -8.488 0.529
-13.954 -8.729 -5.364
-7.863 -8.493 0.652
-9.257 -6.293 -2.970
-15.074 -10.040 -5.117
-14.662 -10.112 -4.623
-8.577 -7.586 -0.981
-9.975 -5.969 -4.534
-8.581 -7.587 -0.983
-7.982 -8.487 0.527
-7.907 -8.548 0.664
-15.077 -10.039 -5.120
-13.230 -8.616 -4.625
-13.935 -8.722 -5.349
-7.982 -8.487 0.527
-14.057 -8.052 -6.016
-23.860 -7.638 -16.236
-12.319 -6.831 -5.492
-7.013 -7.802 0.811
-13.935 -8.722 -5.349
-14.061 -8.051 -6.021
-7.170 -7.863 0.714
-13.935 -8.722 -5.349
-13.392 -8.624 -4.779
-11.009 -8.374 -2.654
-24.491 -9.573 -15.154
-13.652 -8.625 -5.041
-10.063 -7.744 -2.303
-13.304 -8.614 -4.701
-15.070 -10.042 -5.113
-13.307 -8.614 -4.704
-10.806 -8.355 -2.473
-7.261 -7.865 0.625
-8.072 -8.362 0.306
-13.965 -8.718 -5.384
-14.084 -8.048 -6.047
-7.282 -7.819 0.558
-7.902 -8.499 0.620
-9.975 -6.343 -3.892
-8.056 -8.501 0.467
-13.968 -8.717 -5.387
-13.308 -8.614 -4.706
-8.056 -8.501 0.467
-7.860 -8.492 0.653
-15.070 -10.042 -5.113
-7.859 -8.492 0.654
-13.966 -8.718 -5.386
-7.964 -8.312 0.367
-7.964 -8.312 0.367
-14.085 -8.048 -6.048
-13.987 -8.724 -5.404
-15.070 -10.042 -5.113
-11.007 -8.374 -2.652
-8.056 -8.501 0.466
-7.978 -8.486 0.529
-8.220 -8.205 0.006
-8.219 -8.205 0.005
-14.658 -10.110 -4.621
-10.110 -6.266 -5.093
-14.108 -8.039 -6.081
-7.904 -8.547 0.666
-13.970 -8.717 -5.390
-12.263 -6.840 -5.427
-7.970 -8.490 0.541
-7.894 -8.551 0.680
-15.021 -10.047 -5.061
-13.277 -8.619 -4.669
-13.370 -8.627 -4.753
-7.970 -8.490 0.541
-13.208 -8.619 -4.600
-13.208 -8.618 -4.601
-13.278 -8.618 -4.671
-13.278 -8.618 -4.671
-8.216 -8.203 0.006
-14.002 -8.059 -5.953
-13.278 -8.618 -4.671
-7.610 -8.476 0.888
-13.278 -8.618 -4.671
-13.278 -8.618 -4.671
-7.894 -8.551 0.680
-13.918 -8.732 -5.324
-13.371 -8.627 -4.755
-7.611 -8.476 0.887
-7.970 -8.490 0.541
-7.970 -8.490 0.541
-13.916 -8.733 -5.322
-7.260 -7.869 0.630
-10.786 -8.360 -2.448
-10.786 -8.360 -2.448
-15.021 -10.047 -5.061
-13.277 -8.619 -4.669
-7.970 -8.490 0.541
-13.278 -8.618 -4.671
-7.154 -7.872 0.741
-14.342 -10.080 -4.339
-7.154 -7.872 0.741
-7.675 -8.490 0.836
-13.203 -8.617 -4.607
-13.213 -8.618 -4.605
-9.961 -6.347 -3.875
-7.180 -7.816 0.657
-13.374 -8.626 -4.758
-15.034 -10.046 -5.075
-13.957 -8.060 -5.907
-9.961 -6.347 -3.875
-8.353 -8.257 -0.076
-13.957 -8.060 -5.907
-9.961 -6.347 -3.875
-7.009 -7.804 0.817
-13.281 -8.618 -4.674
-7.977 -8.490 0.534
-14.350 -10.079 -4.349
-13.898 -8.726 -5.307
-13.920 -8.732 -5.326
-9.961 -6.347 -3.875
-13.920 -8.732 -5.326
-7.009 -7.805 0.818
-7.166 -7.866 0.722
-13.281 -8.618 -4.674
-14.022 -8.057 -5.976
-13.211 -8.619 -4.603
-14.024 -8.057 -5.977
-10.802 -8.358 -2.467
-13.913 -8.733 -5.318
-13.466 -8.847 -5.134
-6.628 -7.394 0.787
-13.957 -8.060 -5.907
-8.056 -8.505 0.471
-9.961 -6.347 -3.875
-7.816 -8.488 0.694
-8.668 -7.628 -1.027
-7.670 -8.493 0.845
-8.668 -7.628 -1.027
-15.034 -10.046 -5.075
-13.211 -8.619 -4.603
-13.211 -8.619 -4.603
-7.978 -8.490 0.534
-7.902 -8.551 0.671
-13.374 -8.626 -4.758
-7.902 -8.551 0.671
-14.024 -8.057 -5.977
-8.074 -8.365 0.308
-13.212 -8.618 -4.604
-13.373 -8.627 -4.756
-7.614 -8.476 0.883
-15.032 -10.048 -5.070
-7.978 -8.490 0.534
-7.680 -8.490 0.831
-7.181 -7.816 0.657
-7.614 -8.477 0.884
-7.679 -8.490 0.833
-7.614 -8.477 0.884
-7.902 -8.503 0.623
-7.614 -8.477 0.884
-10.114 -5.919 -4.704
-8.225 -8.204 -0.001
-9.961 -6.347 -3.875
-7.979 -8.490 0.532
-15.037 -10.045 -5.079
-9.961 -6.347 -3.875
-13.373 -8.626 -4.757
-13.373 -8.626 -4.757
-13.373 -8.626 -4.757
-9.728 -7.460 -2.424
-14.201 -8.694 -5.642
-7.140 -7.821 0.702
-13.282 -8.618 -4.675
-7.166 -7.866 0.721
-7.979 -8.490 0.532
-8.685 -7.615 -1.058
-13.211 -8.619 -4.603
-10.972 -8.366 -2.627
-10.114 -5.919 -4.704
-7.903 -8.502 0.622
-8.684 -7.615 -1.057
-14.006 -8.059 -5.957
-7.629 -8.542 0.935
-9.962 -6.347 -3.876
-7.675 -8.491 0.838
-7.010 -7.806 0.818
-13.377 -8.626 -4.762
-6.568 -7.366 0.820
-13.377 -8.626 -4.762
-7.675 -8.491 0.838
-13.377 -8.626 -4.762
-7.611 -8.478 0.889
-7.675 -8.491 0.838
-15.034 -10.046 -5.075
-13.373 -8.627 -4.756
-7.605 -8.404 0.788
-7.674 -8.492 0.840
-7.978 -8.490 0.534
-7.978 -8.490 0.534
-11.031 -7.939 -3.289
-8.685 -7.615 -1.058
-7.978 -8.490 0.534
-10.103 -6.267 -5.083
-6.640 -7.434 0.816
-7.637 -8.453 0.838
-13.992 -8.726 -5.402
-9.933 -7.440 -2.553
-7.035 -7.842 0.829
-6.281 -7.213 0.953
-7.978 -8.490 0.533
-7.681 -8.490 0.830
-7.009 -7.805 0.817
-11.322 -12.207 0.898
-6.628 -7.394 0.787
-7.615 -8.476 0.883
-11.322 -12.207 0.898
-8.684 -7.615 -1.057
-7.675 -8.491 0.838
-13.913 -8.734 -5.317
-7.010 -7.806 0.818
-16.725 -11.582 -5.333
-13.377 -8.626 -4.761
-13.913 -8.734 -5.317
-13.913 -8.734 -5.317
-8.683 -7.616 -1.056
-13.377 -8.626 -4.761
-9.917 -7.446 -2.530
-11.841 -7.823 -4.043
-13.379 -8.626 -4.763
-9.249 -7.733 -1.607
-10.688 -8.589 -2.483
-11.988 -7.804 -4.210
-10.446 -8.562 -2.257
-6.665 -7.815 1.169
-11.990 -7.803 -4.212
-11.990 -7.803 -4.212
-11.990 -7.803 -4.212
-11.833 -7.824 -4.033
-11.833 -7.824 -4.033
-10.298 -9.083 -1.365
-9.193 -8.914 -0.365
-13.376 -8.626 -4.760
-11.774 -9.433 -2.349
-11.986 -7.804 -4.207
-10.296 -9.084 -1.362
-11.988 -7.804 -4.209
-8.837 -8.614 -0.233
-6.665 -7.815 1.170
-6.494 -7.749 1.276
-6.494 -7.749 1.276
-9.250 -7.732 -1.609
-9.305 -8.881 -0.519
-11.987 -7.804 -4.208
-11.831 -7.824 -4.031
-11.831 -7.824 -4.031
-8.836 -8.614 -0.232
-11.774 -9.433 -2.349
-10.135 -9.078 -1.201
-8.099 -9.812 1.708
-8.839 -8.616 -0.234
-10.461 -8.565 -2.270
-6.666 -7.815 1.169
-13.379 -8.626 -4.763
-10.461 -8.565 -2.270
-11.837 -7.823 -4.037
-8.651 -9.395 0.729
-10.143 -9.079 -1.210
-11.836 -7.824 -4.037
-11.612 -9.418 -2.203
-11.836 -7.824 -4.037
-10.461 -8.565 -2.270