-8.468 -8.510 0.065
-8.393 -8.500 0.128
-8.093 -7.910 -0.177
-8.093 -7.910 -0.177
-9.247 -5.259 -4.053
-9.428 -6.484 -2.959
-8.332 -8.487 0.161
-9.247 -5.259 -4.053
-8.093 -7.910 -0.177
-8.869 -8.349 -0.608
-9.424 -6.487 -2.952
-8.869 -8.349 -0.608
-7.022 -6.305 -0.721
-9.424 -6.487 -2.952
-8.090 -7.908 -0.176
-8.869 -8.349 -0.608
-8.869 -8.349 -0.608
-8.869 -8.349 -0.608
-9.520 -8.398 -1.214
-8.379 -8.503 0.145
-8.379 -8.503 0.145
-8.881 -8.378 -0.591
-19.153 -4.816 -14.492
-9.442 -6.464 -2.992
-9.814 -8.300 -1.559
-8.387 -8.501 0.135
-8.889 -8.377 -0.600
-14.145 -7.596 -6.774
-8.886 -8.372 -0.602
-10.689 -5.989 -4.746
-19.475 -4.791 -14.830
-9.444 -6.464 -2.994
-14.475 -8.412 -6.101
-9.814 -8.300 -1.559
-9.814 -8.300 -1.559
-8.188 -7.855 -0.314
-9.678 -6.443 -3.246
-9.437 -6.469 -2.983
-8.889 -8.377 -0.600
-9.433 -6.471 -2.977
-8.889 -8.377 -0.600
-8.387 -8.501 0.135
-10.664 -5.994 -4.718
-9.262 -5.241 -4.087
-8.889 -8.377 -0.600
-19.464 -4.792 -14.817
-9.486 -8.422 -1.135
-9.205 -8.797 -0.403
-9.259 -5.242 -4.083
-8.187 -7.855 -0.313
-8.889 -8.375 -0.602
-8.187 -7.855 -0.313
-8.331 -8.490 0.167
-10.687 -5.990 -4.744
-8.889 -8.375 -0.602
-9.547 -8.411 -1.226
-9.547 -8.411 -1.226
-9.532 -8.398 -1.226
-9.547 -8.411 -1.226
-9.815 -8.301 -1.560
-8.128 -8.609 0.513
-9.101 -8.834 -0.241
-8.214 -7.779 -0.442
-6.918 -6.073 -0.817
-19.463 -4.792 -14.816
-8.326 -8.492 0.172
-19.277 -4.767 -14.658
-8.124 -7.807 -0.327
-9.664 -6.439 -3.233
-10.042 -8.975 -1.146
-8.285 -8.498 0.227
-8.285 -8.498 0.227
-8.840 -8.381 -0.527
-8.840 -8.381 -0.527
-8.328 -8.494 0.173
-8.125 -7.808 -0.327
-9.149 -8.818 -0.306
-8.162 -7.894 -0.248
-19.621 -4.180 -15.463
-9.231 -8.261 -1.008
-8.288 -8.497 0.223
-9.147 -8.819 -0.304
-19.621 -4.180 -15.463
-8.187 -7.883 -0.285
-8.334 -8.498 0.172
-9.666 -6.455 -3.223
-8.292 -8.502 0.225
-14.078 -7.644 -6.679
-10.009 -8.973 -1.115
-8.436 -8.508 0.097
-8.213 -7.775 -0.445
-9.148 -8.819 -0.305
-13.256 -7.837 -5.638
-9.508 -5.230 -4.333
-9.508 -5.230 -4.333
-8.292 -8.494 0.217
-19.470 -4.792 -14.824
-8.273 -8.486 0.228
-8.837 -8.382 -0.523
-8.837 -8.382 -0.523
-8.119 -7.811 -0.318
-8.119 -7.811 -0.318
-8.825 -7.900 -0.905
-9.149 -8.818 -0.306
-8.327 -8.495 0.175
-8.122 -7.815 -0.317
-8.840 -8.387 -0.521
-8.122 -7.815 -0.317
-9.280 -5.233 -4.112
-9.089 -5.848 -3.236
-8.204 -7.780 -0.432
-19.468 -4.792 -14.822
-8.850 -7.911 -0.920
-9.279 -5.234 -4.110
-9.815 -8.301 -1.559
-8.138 -8.606 0.500
-9.150 -8.820 -0.306
-19.615 -4.181 -15.456
-8.517 -7.893 -0.601
-6.931 -6.071 -0.831
-9.263 -5.240 -4.088
-8.333 -8.491 0.166
-8.890 -8.378 -0.599
-8.334 -8.491 0.164
-9.089 -5.848 -3.236
-6.970 -6.290 -0.682
-14.495 -8.408 -6.124
-9.507 -5.231 -4.332
-9.547 -8.412 -1.226
-8.891 -8.379 -0.600
-9.531 -8.398 -1.225
-7.676 -8.289 0.644
-12.212 -7.457 -5.159
-10.004 -8.974 -1.109
-10.004 -8.974 -1.109
-6.931 -6.071 -0.832
-14.163 -7.654 -6.746
-9.320 -5.224 -4.161
-12.219 -7.454 -5.169
-8.215 -7.775 -0.446
-9.151 -8.820 -0.306
-9.547 -8.412 -1.226
-13.941 -8.566 -5.397
-8.251 -8.121 -0.244
-19.459 -4.793 -14.811
-14.230 -8.471 -5.794
-6.930 -6.071 -0.830
-13.209 -8.678 -4.538
-8.329 -8.494 0.173
-8.981 -5.841 -3.133
-8.981 -5.841 -3.133
-19.277 -4.767 -14.658
-8.984 -5.840 -3.137
-9.815 -8.301 -1.559
-19.461 -4.793 -14.814
-19.461 -4.793 -14.814
-9.490 -5.225 -4.319
-9.490 -5.225 -4.319
-19.461 -4.793 -14.814
-9.486 -8.423 -1.135
-19.460 -4.793 -14.813
-8.840 -8.387 -0.521
-8.850 -7.911 -0.920
-13.785 -8.591 -5.217
-19.459 -4.793 -14.811
-9.489 -5.225 -4.318
-19.459 -4.793 -14.811
-8.840 -8.387 -0.521
-8.359 -8.507 0.169
-8.840 -8.387 -0.521
-9.609 -6.443 -3.178
-7.291 -8.006 0.733
-19.459 -4.793 -14.811
-8.850 -7.911 -0.921
-9.149 -8.818 -0.306
-8.269 -8.488 0.234
-8.123 -7.815 -0.317
-8.123 -7.815 -0.317
-19.458 -4.793 -14.811
-7.270 -7.996 0.745
-13.215 -8.664 -4.527
-8.302 -8.492 0.206
-7.865 -8.610 0.710
-8.331 -8.492 0.168
-12.958 -7.868 -5.313
-19.459 -4.793 -14.811
-8.123 -7.815 -0.318
-19.459 -4.793 -14.811
-6.930 -6.071 -0.830
-9.674 -6.434 -3.248
-12.960 -7.867 -5.316
-8.168 -7.900 -0.249
-8.124 -7.815 -0.319
-8.827 -7.900 -0.907
-8.124 -7.815 -0.319
-9.615 -6.441 -3.185
-10.004 -8.973 -1.110
-12.619 -7.368 -5.672
-12.551 -8.460 -4.074
-9.485 -8.423 -1.135
-9.609 -6.443 -3.178
-13.321 -8.659 -4.675
-14.369 -8.477 -5.927
-14.230 -8.471 -5.795
-7.663 -8.224 0.589
-12.046 -7.488 -4.963
-14.156 -7.593 -6.790
-9.547 -8.412 -1.226
-13.366 -8.647 -4.695
-9.605 -6.448 -3.171
-8.139 -8.606 0.500
-15.009 -9.026 -6.148
-9.549 -6.456 -3.106
-8.216 -7.780 -0.443
-8.891 -8.379 -0.600
-8.980 -5.842 -3.131
-8.980 -5.842 -3.131
-9.518 -5.227 -4.346
-8.980 -5.842 -3.131
-7.822 -8.620 0.752
-7.822 -8.620 0.752
-8.337 -8.489 0.159
-7.515 -8.251 0.766
-19.459 -4.793 -14.812
-8.850 -7.911 -0.921
-8.269 -8.488 0.234
-8.281 -8.501 0.235
-7.881 -8.611 0.695
-8.261 -8.457 0.105
-7.725 -7.823 0.109
-9.486 -8.423 -1.135
-6.930 -6.071 -0.830
-12.962 -7.867 -5.318
-8.243 -8.445 0.110
-9.471 -8.409 -1.135
-8.327 -8.494 0.174
-8.825 -7.900 -0.906
-7.605 -6.169 -1.423
-9.554 -6.451 -3.115
-9.207 -8.817 -0.365
-9.029 -7.867 -1.190
-19.148 -4.817 -14.485
-8.845 -8.386 -0.528
-8.328 -8.494 0.174
-7.017 -6.302 -0.719
-7.664 -8.224 0.589
-6.959 -6.286 -0.676
-9.610 -6.443 -3.179
-19.460 -4.793 -14.813
-19.277 -4.767 -14.658
-7.718 -7.807 0.101
-19.475 -4.791 -14.830
-8.161 -7.897 -0.245
-8.154 -8.610 0.488
-11.368 -7.371 -4.014
-7.720 -7.817 0.108
-7.285 -8.001 0.734
-7.720 -7.817 0.108
-9.381 -5.242 -4.202
-7.640 -8.311 0.702
-7.721 -7.817 0.107
-9.998 -8.977 -1.099
-15.138 -9.317 -6.007
-8.837 -8.381 -0.523
-8.850 -7.911 -0.920
-8.344 -8.489 0.153
-6.930 -6.071 -0.830
-8.851 -7.911 -0.922
-8.841 -8.387 -0.522
-8.327 -8.495 0.175
-9.485 -8.423 -1.134
-19.277 -4.767 -14.658
-13.324 -8.658 -4.642
-19.277 -4.767 -14.658
-10.027 -8.987 -1.118
-10.027 -8.987 -1.118
-12.454 -8.456 -3.980
-8.125 -7.808 -0.327
-9.556 -6.450 -3.117
-8.984 -5.840 -3.137
-10.004 -8.973 -1.109
-7.837 -8.590 0.783
-8.202 -7.778 -0.431
-8.202 -7.778 -0.431
-12.400 -8.011 -4.496
-19.475 -4.791 -14.829
-19.621 -4.180 -15.463
-19.621 -4.180 -15.463
-9.578 -6.462 -3.131
-8.196 -8.143 -0.149
-13.441 -8.632 -4.821
-8.984 -5.840 -3.137
-15.023 -9.030 -6.158
-9.524 -8.400 -1.213
-9.148 -8.819 -0.304
-9.148 -8.819 -0.304
-13.909 -8.571 -5.360
-7.836 -8.627 0.747
-8.247 -8.122 -0.245
-6.930 -6.071 -0.829
-12.392 -7.990 -4.515
-8.333 -8.491 0.165
-8.276 -8.485 0.224
-7.666 -8.224 0.586
-8.247 -8.122 -0.244
-8.333 -8.491 0.165
-10.026 -8.988 -1.116
-8.247 -8.122 -0.244
-7.757 -7.795 0.053
-9.147 -8.819 -0.304
-13.247 -8.646 -4.578
-8.204 -7.783 -0.429
-9.609 -6.444 -3.177
-15.208 -9.310 -6.085
-8.138 -8.606 0.500
-8.246 -8.118 -0.243
-9.426 -5.234 -4.256
-19.458 -4.793 -14.811
-8.271 -8.487 0.231
-8.154 -8.609 0.487
-6.930 -6.071 -0.830
-14.971 -9.041 -6.106
-10.004 -8.973 -1.110
-13.046 -8.645 -4.379
-19.467 -4.792 -14.820
-7.836 -8.591 0.785
-7.586 -8.222 0.663
-10.004 -8.973 -1.110
-13.311 -8.656 -4.667
-13.320 -8.659 -4.637
-13.311 -8.656 -4.667
-14.972 -9.034 -6.101
-9.150 -8.818 -0.307
-8.850 -7.911 -0.920
-19.458 -4.793 -14.811
-11.879 -5.448 -6.437
-12.320 -7.992 -4.444
-6.930 -6.071 -0.830
-9.618 -6.440 -3.190
-8.248 -8.452 0.112
-8.248 -8.452 0.112
-9.616 -6.440 -3.187
-7.722 -7.816 0.106
-8.248 -8.452 0.112
-8.154 -8.610 0.488
-8.246 -8.452 0.113
-19.458 -4.793 -14.810
-12.435 -8.024 -4.519
-13.321 -8.659 -4.638
-7.721 -7.816 0.107
-13.312 -8.657 -4.668
-15.159 -9.315 -6.031
-15.159 -9.315 -6.031
-15.159 -9.315 -6.031
-10.003 -8.973 -1.109
-7.590 -7.859 0.281
-8.300 -8.493 0.208
-9.556 -6.449 -3.119
-13.786 -8.591 -5.217
-8.262 -8.459 0.106
-7.640 -8.316 0.707
-19.459 -4.793 -14.812
-14.972 -9.034 -6.100
-7.270 -7.996 0.745
-8.301 -8.492 0.207
-19.614 -4.181 -15.455
-19.614 -4.181 -15.455
-12.410 -8.009 -4.506
-7.601 -8.214 0.641
-15.042 -9.026 -6.179
-18.957 -4.914 -14.209
-6.930 -6.071 -0.830
-19.615 -4.181 -15.457
-19.615 -4.181 -15.457
-6.944 -6.072 -0.843
-14.326 -8.726 -5.723
-12.462 -8.015 -4.551
-8.278 -8.490 0.228
-7.723 -8.211 0.517
-19.458 -4.793 -14.811
-13.320 -8.659 -4.636
-14.296 -8.735 -5.684
-10.003 -8.973 -1.109
-9.149 -8.819 -0.306
-14.157 -7.593 -6.790
-7.470 -8.247 0.808
-6.931 -6.071 -0.831
-9.149 -8.819 -0.305
-10.003 -8.974 -1.108
-9.609 -6.445 -3.178
-9.609 -6.445 -3.177
-9.416 -5.234 -4.245
-7.743 -7.770 0.045
-10.003 -8.974 -1.108
-10.042 -8.976 -1.145
-10.042 -8.976 -1.145
-10.042 -8.976 -1.145
-7.807 -8.612 0.757
-10.000 -8.977 -1.100
-19.472 -4.791 -14.826
-6.930 -6.071 -0.830
-11.799 -5.444 -6.360
-13.259 -8.662 -4.574
-8.239 -8.445 0.114
-13.788 -8.589 -5.221
-8.255 -8.453 0.107
-8.154 -8.610 0.488
-7.835 -8.592 0.787
-10.002 -8.973 -1.108
-8.254 -8.453 0.108
-15.138 -9.317 -6.007
-10.042 -8.975 -1.145
-9.381 -5.242 -4.202
-8.155 -8.608 0.485
-13.359 -8.669 -4.667
-8.255 -8.453 0.107
-19.473 -4.791 -14.827
-12.466 -8.472 -3.977
-12.375 -7.998 -4.492
-7.716 -7.809 0.106
-12.434 -8.024 -4.518
-12.373 -7.998 -4.490
-10.003 -8.973 -1.109
-10.003 -8.973 -1.109
-8.155 -8.608 0.485
-10.042 -8.975 -1.146
-13.312 -8.656 -4.669
-8.239 -8.445 0.114
-8.239 -8.445 0.114
-8.983 -5.841 -3.135
-14.322 -8.727 -5.718
-9.149 -8.819 -0.306
-10.519 -6.025 -4.556
-7.837 -8.590 0.784
-19.472 -4.792 -14.826
-12.973 -7.862 -5.331
-9.813 -8.984 -0.918
-8.321 -8.479 0.166
-8.321 -8.479 0.166
-8.274 -8.485 0.226
-8.274 -8.485 0.226
-8.260 -8.453 0.103
-15.143 -9.317 -6.012
-12.162 -8.007 -4.279
-14.297 -8.735 -5.686
-7.597 -6.172 -1.412
-7.640 -8.304 0.694
-7.837 -8.591 0.784
-12.967 -7.864 -5.324
-9.614 -6.440 -3.186
-10.004 -8.973 -1.110
-8.273 -8.486 0.228
-8.273 -8.486 0.228
-8.263 -8.484 0.235
-8.284 -8.498 0.229
-8.273 -8.486 0.228
-10.043 -8.975 -1.146
-13.190 -8.675 -4.523
-8.238 -8.441 0.111
-13.787 -8.590 -5.219
-7.723 -8.212 0.517
-7.600 -7.877 0.288
-10.027 -8.987 -1.118
-7.600 -7.877 0.288
-7.883 -8.609 0.692
-6.963 -6.062 -0.872
-10.042 -8.975 -1.145
-15.138 -9.317 -6.006
-9.149 -8.818 -0.306
-14.986 -9.033 -6.117
-9.152 -8.819 -0.308
-9.152 -8.819 -0.308
-8.280 -8.501 0.236
-12.318 -7.992 -4.442
-7.865 -8.610 0.712
-14.969 -9.036 -6.097
-8.300 -8.494 0.210
-15.157 -9.315 -6.029
-10.056 -8.974 -1.161
-12.435 -8.024 -4.519
-9.157 -8.817 -0.315
-10.042 -8.986 -1.134
-7.576 -7.803 0.250
-10.057 -8.974 -1.161
-14.305 -8.739 -5.689
-13.255 -8.662 -4.569
-8.099 -8.158 0.009
-13.350 -8.650 -4.677
-14.308 -8.735 -5.698
-10.057 -8.974 -1.162
-9.209 -8.817 -0.367
-8.098 -8.158 0.009
-8.098 -8.158 0.009
-8.098 -8.158 0.009
-7.834 -8.592 0.788
-18.698 -4.893 -13.975
-12.393 -8.032 -4.476
-14.971 -9.038 -6.098
-7.793 -8.585 0.754
-8.195 -8.098 -0.214
-7.634 -8.297 0.694
-8.304 -8.490 0.202
-9.153 -8.820 -0.309
-9.153 -8.820 -0.309
-8.194 -8.098 -0.213
-9.200 -8.818 -0.357
-14.969 -9.038 -6.095
-7.855 -8.616 0.793
-7.616 -8.283 0.699
-8.194 -8.096 -0.214
-12.306 -7.996 -4.430
-7.727 -8.218 0.520
-13.196 -8.659 -4.514
-12.306 -7.996 -4.430
-14.983 -9.037 -6.109
-7.790 -8.582 0.754
-13.199 -8.673 -4.537
-15.068 -9.321 -5.936
-15.142 -9.319 -6.011
-9.607 -6.454 -3.164
-9.607 -6.454 -3.164
-10.050 -8.976 -1.153
-10.050 -8.976 -1.153
-8.332 -8.490 0.165
-8.156 -8.608 0.484
-14.953 -9.043 -6.080
-10.012 -8.973 -1.118
-15.095 -9.318 -5.967
-9.151 -8.819 -0.308
-8.197 -8.419 0.124
-13.317 -8.680 -4.613
-10.050 -8.976 -1.153
-10.011 -8.973 -1.117
-7.667 -8.230 0.592
-8.272 -8.484 0.227
-10.049 -8.976 -1.152
-14.286 -8.743 -5.666
-8.856 -5.911 -2.937
-12.382 -7.993 -4.504
-7.992 -5.628 -2.400
-8.240 -8.085 -0.257
-12.329 -7.987 -4.458
-9.610 -6.454 -3.169
-7.607 -8.218 0.640
-8.337 -8.488 0.158
-10.252 -6.065 -4.245
-9.198 -8.818 -0.355
-9.151 -8.820 -0.306
-9.198 -8.819 -0.355
-8.234 -8.086 -0.248
-9.150 -8.820 -0.306
-8.114 -8.608 0.526
-8.234 -8.086 -0.247
-12.325 -7.988 -4.454
-8.234 -8.086 -0.248
-8.234 -8.086 -0.248
-12.380 -7.993 -4.502
-14.311 -8.735 -5.699
-8.194 -7.753 -0.447
-10.046 -8.977 -1.148
-9.606 -6.456 -3.163
-8.194 -7.753 -0.447
-6.929 -6.072 -0.828
-9.148 -8.819 -0.304
-12.228 -7.968 -4.484
-7.696 -8.270 0.604
-7.669 -8.229 0.588
-8.240 -8.088 -0.258
-8.278 -8.483 0.220
-9.150 -8.820 -0.306
-10.046 -8.977 -1.147
-10.046 -8.977 -1.147
-10.046 -8.977 -1.147
-12.326 -7.987 -4.455
-8.278 -8.482 0.219
-7.775 -8.598 0.779
-13.382 -8.662 -4.696
-12.383 -8.002 -4.498
-8.279 -8.482 0.218
-8.868 -8.351 -0.602
-8.335 -8.490 0.163
-14.310 -8.731 -5.703
-9.147 -8.819 -0.304
-9.197 -8.819 -0.354
-10.259 -6.064 -4.252
-8.236 -8.091 -0.250
-9.147 -8.819 -0.304
-12.379 -7.994 -4.500
-7.051 -8.209 1.186
-10.046 -8.977 -1.148
-8.277 -8.484 0.222
-7.794 -8.599 0.762
-12.325 -7.988 -4.454
-7.669 -8.229 0.588
-10.046 -8.977 -1.147
-8.236 -8.091 -0.250
-14.309 -8.735 -5.697
-7.729 -8.217 0.516
-9.418 -5.248 -4.233
-14.549 -6.763 -7.801
-9.692 -6.450 -3.252
-25.135 -8.635 -16.631
-14.556 -6.762 -7.809
-14.556 -6.762 -7.810
-9.357 -5.262 -4.154
-25.134 -8.636 -16.630
-14.556 -6.762 -7.809
-25.615 -8.625 -17.440
-24.821 -8.631 -16.328
-24.664 -8.633 -16.170
-8.280 -8.479 0.209
-25.879 -8.633 -17.699
-9.511 -6.476 -3.046
-9.511 -6.477 -3.046
-8.314 -8.479 0.176
-14.559 -6.761 -7.814
-9.572 -6.470 -3.114
-8.359 -8.483 0.133
-14.301 -8.229 -6.057
-20.377 -6.402 -14.212
-9.513 -6.477 -3.048
-9.513 -6.477 -3.048
-9.513 -6.477 -3.048
-25.652 -8.620 -17.479
-20.847 -6.400 -14.688
-14.558 -6.761 -7.812
-13.588 -8.332 -5.239
-9.570 -6.471 -3.112
-14.412 -6.820 -7.613
-8.356 -8.483 0.136
-13.558 -7.743 -6.150
-25.150 -8.635 -16.646
-14.559 -6.761 -7.813
-19.944 -6.462 -13.745
-9.505 -6.478 -3.039
-8.477 -8.516 0.058
-14.280 -8.228 -6.037
-9.885 -8.474 -1.483
-9.255 -8.814 -0.443
-9.255 -8.814 -0.443
-9.472 -5.250 -4.275
-9.519 -8.404 -1.205
-24.872 -8.629 -16.367
-8.447 -8.514 0.086
-25.652 -8.620 -17.479
-25.154 -8.634 -16.651
-14.559 -6.761 -7.813
-9.469 -5.251 -4.271
-17.828 -8.783 -9.025
-25.446 -8.623 -17.267
-9.514 -6.477 -3.049
-25.629 -8.624 -17.455
-9.004 -8.669 -0.329
-14.985 -8.307 -6.704
-15.581 -9.057 -6.568
-8.919 -8.690 -0.232
-24.878 -8.646 -16.359
-15.070 -8.319 -6.775
-10.528 -8.706 -1.793
-15.343 -9.115 -6.262
-10.529 -8.706 -1.794
-9.047 -8.652 -0.387
-9.513 -8.404 -1.199
-25.621 -8.624 -17.447
-9.497 -8.404 -1.184
-13.357 -8.113 -5.239
-9.514 -6.478 -3.049
-9.003 -8.669 -0.329
-8.481 -8.516 0.054
-14.640 -8.402 -6.268
-9.319 -5.274 -4.104
-18.017 -8.776 -9.217
-25.749 -8.645 -17.546
-11.038 -7.490 -3.553
-8.482 -8.516 0.053
-8.482 -8.516 0.053
-22.987 -7.700 -15.677
-9.579 -6.465 -3.123
-14.737 -8.316 -6.637
-19.677 -6.465 -13.477
-12.925 -7.313 -6.045
-10.516 -8.658 -1.832
-8.320 -8.476 0.164
-11.282 -7.354 -3.938
-13.747 -6.911 -6.865
-14.804 -8.389 -6.448
-9.566 -6.473 -3.105
-13.919 -7.692 -6.465
-9.571 -6.470 -3.114
-12.585 -7.364 -5.637
-12.585 -7.364 -5.637
-8.573 -8.817 0.267
-12.276 -8.009 -4.393
-9.045 -8.654 -0.383
-9.568 -6.471 -3.109
-8.355 -8.483 0.138
-15.319 -9.120 -6.231
-25.652 -8.620 -17.479
-9.528 -8.423 -1.194
-17.826 -8.784 -9.023
-24.424 -8.689 -15.860
-8.417 -7.945 -0.481
-8.417 -7.945 -0.481
-9.465 -6.484 -2.992
-8.831 -7.857 -0.956
-9.483 -8.404 -1.172
-23.304 -7.817 -15.908
-14.986 -8.307 -6.705
-9.584 -6.472 -3.124
-9.885 -8.474 -1.484
-9.181 -8.813 -0.344
-10.528 -8.706 -1.792
-10.528 -8.706 -1.792
-9.466 -5.251 -4.268
-25.878 -8.633 -17.698
-9.496 -8.404 -1.183
-14.672 -8.384 -6.323
-23.220 -7.817 -15.818
-8.371 -8.092 -0.292
-9.341 -6.523 -2.830
-25.738 -8.641 -17.539
-24.858 -8.626 -16.355
-25.759 -8.642 -17.560
-13.744 -6.909 -6.864
-23.310 -7.812 -15.919
-13.800 -9.232 -4.586
-17.830 -8.784 -9.027
-9.446 -8.435 -1.079
-8.925 -8.812 -0.113
-15.069 -8.320 -6.772
-23.222 -7.734 -15.895
-9.963 -8.528 -1.497
-14.892 -8.384 -6.542
-25.388 -8.640 -16.874
-8.664 -8.681 0.027
-12.380 -7.369 -5.427
-9.485 -8.403 -1.177
-12.380 -7.369 -5.427
-9.421 -6.496 -2.936
-12.756 -7.587 -5.159
-17.707 -8.787 -8.902
-14.335 -8.241 -6.080
-12.508 -7.972 -4.652
-12.508 -7.972 -4.652
-12.508 -7.972 -4.652
-13.216 -8.646 -4.549
-13.013 -7.580 -5.424
-13.748 -8.349 -5.381
-9.661 -6.462 -3.209
-9.537 -8.417 -1.211
-24.872 -8.628 -16.368
-24.670 -8.631 -16.178
-25.637 -8.624 -17.463
-14.640 -8.403 -6.268
-9.500 -8.403 -1.190
-12.856 -7.583 -5.263
-9.531 -8.422 -1.200
-11.172 -7.383 -3.793
-14.984 -8.308 -6.702
-14.392 -8.477 -5.948
-24.875 -8.627 -16.372
-14.336 -8.241 -6.080
-9.550 -6.492 -3.072
-9.550 -6.480 -3.083
-12.495 -7.367 -5.554
-13.216 -8.646 -4.549
-12.637 -7.365 -5.690
-12.637 -7.365 -5.690
-8.435 -7.967 -0.478
-8.443 -8.501 0.074
-12.507 -7.972 -4.651
-11.331 -7.343 -4.004
-12.643 -7.364 -5.696
-12.506 -7.972 -4.650
-9.548 -6.481 -3.079
-9.522 -8.403 -1.211
-14.184 -8.478 -5.739
-14.184 -8.478 -5.738
-14.887 -8.384 -6.537
-8.900 -8.387 -0.600
-23.217 -7.734 -15.890
-10.529 -8.706 -1.793
-8.427 -8.499 0.089
-9.647 -6.463 -3.194
-12.294 -8.006 -4.412
-15.052 -9.332 -5.909
-15.052 -9.332 -5.909
-13.671 -8.603 -5.087
-14.882 -9.048 -5.999
-14.882 -9.048 -5.999
-24.879 -8.644 -16.362
-25.764 -8.645 -17.562
-12.326 -8.623 -3.680
-8.876 -8.385 -0.580
-14.160 -8.493 -5.698
-10.518 -8.659 -1.834
-11.038 -7.400 -3.644
-8.162 -8.621 0.491
-12.773 -7.588 -5.174
-12.210 -8.021 -4.319
-14.161 -8.753 -5.532
-8.342 -8.483 0.151
-14.289 -8.483 -5.838
-9.119 -8.832 -0.264
-9.545 -8.422 -1.213
-13.740 -6.911 -6.857
-8.425 -8.499 0.091
-8.129 -8.615 0.518
-8.349 -8.482 0.142
-8.097 -8.615 0.550
-8.875 -7.879 -0.979
-14.846 -9.052 -5.957
-9.136 -8.831 -0.281
-9.531 -8.417 -1.205
-13.438 -8.091 -5.346
-15.017 -9.337 -5.866
-9.136 -8.831 -0.282
-14.849 -9.052 -5.960
-9.535 -6.480 -3.068
-12.272 -8.010 -4.388
-12.272 -8.010 -4.388
-12.272 -8.010 -4.388
-12.272 -8.010 -4.388
-8.482 -8.521 0.061
-23.446 -7.765 -16.100
-11.748 -8.101 -3.820
-11.765 -7.492 -4.667
-25.758 -8.645 -17.556
-9.048 -8.862 -0.161
-12.855 -7.584 -5.261
-9.050 -8.867 -0.160
-14.132 -9.121 -5.053
-9.515 -8.417 -1.190
-12.856 -7.584 -5.262
-8.008 -8.651 0.675
-8.050 -8.661 0.640
-9.048 -8.862 -0.162
-23.314 -7.817 -15.919
-17.923 -8.778 -9.124
-25.213 -8.620 -17.024
-8.310 -8.479 0.179
-17.924 -8.778 -9.125
-25.394 -8.639 -16.880
-7.946 -8.673 0.759
-25.764 -8.645 -17.563
-14.161 -8.493 -5.699
-9.050 -8.867 -0.159
-13.692 -7.695 -6.237
-9.049 -8.862 -0.163
-8.866 -7.871 -0.977
-23.307 -7.817 -15.912
-9.428 -6.495 -2.944
-17.707 -8.787 -8.902
-8.192 -8.111 -0.186
-8.167 -8.485 0.328
-20.462 -6.405 -14.329
-25.884 -8.633 -17.705
-13.887 -8.779 -5.231
-12.876 -7.894 -5.196
-17.923 -8.778 -9.124
-17.607 -8.827 -8.753
-13.422 -6.950 -6.491
-9.122 -8.831 -0.267
-8.085 -8.620 0.567
-12.220 -8.019 -4.329
-8.346 -8.481 0.145
-12.782 -8.674 -4.085
-13.642 -8.605 -5.056
-8.431 -7.966 -0.475
-12.346 -7.711 -4.628
-13.641 -8.605 -5.055
-12.936 -8.691 -4.221
-8.084 -8.620 0.568
-9.951 -9.001 -1.028
-25.449 -8.623 -17.270
-12.493 -8.675 -3.793
-12.479 -7.368 -5.529
-9.051 -8.866 -0.161
-9.051 -8.866 -0.161
-9.048 -8.862 -0.162
-9.048 -8.862 -0.162
-8.010 -8.649 0.671
-14.623 -8.365 -6.482
-9.003 -8.883 -0.095
-13.789 -7.706 -6.314
-9.441 -6.492 -2.960
-11.008 -7.431 -3.578
-11.777 -8.098 -3.846
-11.782 -7.492 -4.686
-9.436 -6.493 -2.954
-8.281 -8.481 0.210
-23.310 -7.817 -15.914
-11.743 -8.101 -3.815
-7.621 -8.289 0.697
-12.209 -8.264 -3.936
-8.279 -8.478 0.209
-13.811 -9.230 -4.600
-9.732 -9.016 -0.795
-10.519 -8.659 -1.835
-13.912 -7.697 -6.455
-14.914 -9.353 -5.743
-12.773 -8.674 -4.076
-8.735 -8.668 -0.053
-9.948 -9.001 -1.025
-12.949 -7.888 -5.281
-8.083 -8.620 0.569
-13.763 -7.690 -6.318
-11.943 -7.490 -4.851
-9.122 -8.836 -0.262
-7.318 -8.107 0.813
-14.086 -8.484 -5.634
-9.524 -6.483 -3.053
-11.940 -7.492 -4.847
-8.341 -8.483 0.151
-13.913 -7.696 -6.456
-14.914 -9.353 -5.743
-25.764 -8.645 -17.562
-13.887 -8.783 -5.227
-8.310 -8.479 0.178
-9.049 -8.862 -0.162
-14.018 -8.487 -5.562
-23.309 -7.817 -15.913
-13.988 -9.470 -4.645
-11.742 -8.102 -3.815
-13.988 -9.470 -4.645
-25.450 -8.623 -17.272
-17.924 -8.778 -9.124
-10.546 -7.526 -3.011
-9.442 -8.403 -1.136
-17.782 -8.796 -8.966
-12.754 -9.621 -3.607
-25.759 -8.645 -17.557
-25.759 -8.645 -17.557
-9.515 -8.417 -1.190
-8.007 -8.651 0.676
-23.304 -7.816 -15.909
-7.799 -8.672 0.903
-13.986 -9.470 -4.643
-13.632 -8.930 -5.116
-11.756 -7.494 -4.657
-8.235 -6.940 -1.705
-8.866 -8.387 -0.568
-9.405 -5.273 -4.185
-13.989 -9.470 -4.646
-13.634 -8.930 -5.118
-9.518 -8.422 -1.189
-13.800 -9.229 -4.590
-12.162 -7.717 -4.436
-7.952 -8.670 0.750
-8.232 -8.125 -0.220
-11.756 -7.495 -4.657
-25.032 -8.682 -16.468
-25.754 -8.645 -17.552
-9.047 -8.862 -0.160
-12.038 -7.488 -4.949
-8.344 -8.497 0.165
-12.272 -8.014 -4.376
-9.454 -6.511 -2.957
-9.454 -6.511 -2.957
-13.042 -8.639 -4.381
-13.983 -7.700 -6.529
-15.168 -9.316 -6.039
-15.185 -9.314 -6.059
-27.695 -8.453 -19.695
-9.066 -8.862 -0.180
-12.547 -8.673 -3.850
-7.606 -8.270 0.693
-8.979 -8.723 -0.248
-13.742 -7.698 -6.290
-25.915 -8.641 -17.721
-14.433 -9.421 -5.159
-9.063 -8.864 -0.175
-8.300 -8.495 0.207
-10.656 -8.631 -1.998
-11.200 -7.383 -3.825
-9.131 -8.837 -0.269
-25.153 -8.665 -16.604
-25.153 -8.665 -16.604
-25.913 -8.641 -17.719
-12.603 -8.664 -3.915
-25.913 -8.641 -17.719
-9.063 -8.864 -0.175
-14.172 -9.122 -5.091
-8.014 -8.650 0.668
-8.014 -8.650 0.668
-14.172 -9.122 -5.091
-8.014 -8.650 0.668
-9.113 -8.863 -0.225
-11.980 -8.077 -4.053
-14.432 -9.421 -5.158
-7.604 -8.272 0.697
-14.432 -9.421 -5.158
-9.398 -6.514 -2.897
-12.925 -7.896 -5.248
-9.399 -6.514 -2.898
-12.115 -8.482 -3.619
-25.155 -8.665 -16.605
-11.713 -8.107 -3.788
-7.957 -8.670 0.745
-7.989 -8.670 0.713
-25.913 -8.642 -17.719
-8.014 -8.650 0.668
-9.060 -8.859 -0.176
-9.492 -8.425 -1.132
-14.089 -8.479 -5.643
-9.852 -9.002 -0.928
-14.146 -9.184 -4.993
-25.913 -8.642 -17.719
-11.977 -8.069 -4.057
-13.739 -7.698 -6.286
-12.030 -8.026 -4.240
-8.382 -8.512 0.149
-11.980 -8.077 -4.053
-14.432 -9.421 -5.158
-7.842 -8.642 0.831
-9.113 -8.863 -0.225
-12.036 -8.095 -4.080
-11.972 -8.102 -4.014
-14.432 -9.421 -5.158
-9.062 -8.864 -0.174
-14.172 -9.122 -5.091
-7.604 -8.272 0.697
-9.398 -6.514 -2.897
-11.980 -8.077 -4.053
-9.876 -9.016 -0.937
-9.398 -6.514 -2.898
-7.650 -8.267 0.646
-12.795 -7.576 -5.208
-8.015 -8.649 0.665
-9.395 -6.516 -2.892
-9.112 -8.863 -0.224
-11.978 -8.078 -4.051
-8.295 -8.498 0.214
-8.015 -8.649 0.666
-23.435 -7.850 -16.023
-13.845 -9.230 -4.633
-13.783 -8.779 -5.131
-9.020 -8.885 -0.111
-9.766 -8.998 -0.847
-7.961 -8.668 0.739
-11.029 -7.511 -3.522
-14.044 -9.463 -4.706
-11.797 -8.106 -3.865
-7.961 -8.668 0.739
-9.006 -8.883 -0.098
-9.008 -8.887 -0.097
-11.794 -8.098 -3.868
-7.961 -8.668 0.739
-8.112 -8.605 0.518
-9.005 -8.883 -0.098
-25.152 -8.665 -16.602
-13.775 -8.778 -5.124
-11.780 -8.108 -3.849
-8.072 -8.620 0.571
-9.003 -8.890 -0.089
-11.712 -8.107 -3.788
-12.115 -8.467 -3.630
-11.713 -8.107 -3.789
-14.119 -6.819 -7.330
-8.127 -8.614 0.513
-8.050 -8.636 0.618
-14.663 -9.392 -5.433
-12.590 -8.658 -3.908
-12.098 -8.055 -4.184
-14.663 -9.392 -5.434
-8.050 -8.635 0.617
-8.048 -8.637 0.620
-12.714 -8.698 -3.992
-14.482 -9.093 -5.530
-12.029 -8.054 -4.120
-9.952 -9.000 -1.030
-8.048 -8.637 0.620
-8.127 -8.614 0.513
-12.898 -8.699 -4.174
-9.146 -8.849 -0.273
-8.038 -7.948 -0.089
-14.662 -9.392 -5.433
-12.098 -8.055 -4.184
-9.146 -8.849 -0.273
-9.146 -8.849 -0.273
-20.961 -6.382 -14.823
-12.018 -8.025 -4.229
-8.278 -8.487 0.220
-7.453 -8.272 0.850
-9.436 -6.509 -2.941
-9.845 -9.002 -0.922
-13.923 -8.777 -5.269
-11.141 -7.472 -3.674
-8.056 -8.619 0.588
-7.453 -8.271 0.849
-8.011 -8.650 0.671
-8.011 -8.650 0.671
-8.123 -8.614 0.517
-9.883 -9.004 -0.958
-12.381 -8.577 -3.782
-9.884 -9.004 -0.958
-9.509 -8.431 -1.143
-7.841 -8.646 0.835
-12.914 -8.680 -4.243
-12.102 -8.481 -3.607
-9.868 -9.016 -0.929
-7.841 -8.646 0.835
-14.387 -9.428 -5.104
-9.868 -9.016 -0.929
-14.387 -9.428 -5.104
-8.123 -8.614 0.518
-8.123 -8.614 0.518
-9.829 -9.014 -0.893
-14.370 -9.430 -5.085
-14.387 -9.428 -5.104
-14.484 -9.434 -5.190
-11.960 -8.080 -4.034
-14.312 -9.430 -5.029
-14.388 -9.428 -5.104
-11.960 -8.080 -4.034
-11.916 -8.017 -4.041
-14.270 -9.432 -4.987
-14.007 -8.486 -5.553
-9.049 -8.864 -0.161
-9.878 -9.005 -0.951
-14.345 -9.431 -5.062
-7.646 -8.274 0.656
-9.102 -8.867 -0.210
-9.878 -9.005 -0.951
-8.003 -8.652 0.681
-9.049 -8.864 -0.161
-11.935 -8.084 -4.011
-11.935 -8.084 -4.011
-12.325 -8.600 -3.702
-14.350 -9.430 -5.067
-11.939 -8.083 -4.015
-11.870 -8.082 -3.952
-7.674 -8.295 0.652
-8.289 -7.758 -0.517
-7.838 -8.650 0.842
-7.646 -8.273 0.656
-11.935 -8.075 -4.019
-9.101 -8.863 -0.213
-9.103 -8.867 -0.211
-9.100 -8.863 -0.213
-12.821 -8.685 -4.143
-13.907 -8.779 -5.251
-9.050 -8.863 -0.163
-13.907 -8.779 -5.251
-8.003 -8.653 0.683
-8.015 -8.654 0.670
-11.938 -8.083 -4.015
-14.182 -9.146 -5.075
-9.101 -8.863 -0.213
-7.816 -8.744 0.957
-9.050 -8.864 -0.162
-9.103 -8.867 -0.211
-13.907 -8.779 -5.251
-14.349 -9.430 -5.067
-9.879 -9.005 -0.952
-11.938 -8.083 -4.015
-9.879 -9.005 -0.952
-9.879 -9.005 -0.952
-17.106 -2.961 -14.210
-17.302 -2.953 -14.414
-19.135 -4.238 -14.912
-17.120 -2.960 -14.225
-17.316 -2.952 -14.430
-17.316 -2.952 -14.430
-19.135 -4.238 -14.912
-11.411 -4.707 -6.679
-19.494 -4.280 -15.230
-11.411 -4.707 -6.679
-9.871 -5.078 -4.776
-17.316 -2.952 -14.430
-9.836 -5.111 -4.719
-19.135 -4.238 -14.912
-17.734 -5.162 -12.781
-19.135 -4.238 -14.912
-17.316 -2.952 -14.430
-9.746 -5.102 -4.627
-19.135 -4.238 -14.912
-17.120 -2.960 -14.225
-9.745 -5.102 -4.627
-19.493 -4.281 -15.229
-19.135 -4.238 -14.912
-17.316 -2.952 -14.430
-11.411 -4.707 -6.679
-11.411 -4.707 -6.679
-17.734 -5.162 -12.781
-19.280 -4.276 -15.020
-19.494 -4.280 -15.230
-19.135 -4.238 -14.912
-19.135 -4.238 -14.912
-11.411 -4.707 -6.679
-19.135 -4.238 -14.912
-19.494 -4.280 -15.230
-19.281 -4.271 -15.027
-19.281 -4.271 -15.027
-17.305 -2.944 -14.427
-17.305 -2.944 -14.427
-19.281 -4.271 -15.027
-19.490 -4.275 -15.232
-11.395 -4.710 -6.661
-17.005 -2.915 -14.155
-11.424 -4.703 -6.696
-17.360 -2.938 -14.489
-17.360 -2.938 -14.489
-19.552 -4.272 -15.297
-19.343 -4.268 -15.092
-19.343 -4.268 -15.092
-19.552 -4.272 -15.297
-9.746 -5.105 -4.625
-19.200 -4.230 -14.987
-19.552 -4.272 -15.297
-19.200 -4.230 -14.987
-19.200 -4.230 -14.987
-17.360 -2.938 -14.489
-19.552 -4.272 -15.297
-19.343 -4.268 -15.092
-19.343 -4.268 -15.092
-19.343 -4.268 -15.092
-17.360 -2.938 -14.489
-17.360 -2.938 -14.489
-19.552 -4.272 -15.297
-19.343 -4.268 -15.092
-17.360 -2.938 -14.489
-11.424 -4.703 -6.696
-19.200 -4.230 -14.987
-9.833 -5.114 -4.714
-9.746 -5.105 -4.626
-19.552 -4.272 -15.297
-19.343 -4.268 -15.092
-19.552 -4.272 -15.297
-19.552 -4.272 -15.297
-9.746 -5.105 -4.625
-9.746 -5.105 -4.625
-8.602 -5.033 -3.552
-19.200 -4.230 -14.987
-19.552 -4.272 -15.297
-19.552 -4.272 -15.297
-17.360 -2.938 -14.489
-9.755 -5.099 -4.640
-19.552 -4.272 -15.297
-19.343 -4.268 -15.092
-9.746 -5.105 -4.626
-19.552 -4.272 -15.297
-17.360 -2.938 -14.489
-19.343 -4.268 -15.092
-19.343 -4.268 -15.092
-17.005 -2.915 -14.155
-19.343 -4.268 -15.092
-9.833 -5.114 -4.714
-19.552 -4.272 -15.297
-7.380 -4.512 -2.859
-11.424 -4.703 -6.696
-19.200 -4.230 -14.987
-9.746 -5.105 -4.626
-19.343 -4.268 -15.092
-17.360 -2.938 -14.489
-17.360 -2.938 -14.489
-19.343 -4.268 -15.092
-19.343 -4.268 -15.092
-19.343 -4.268 -15.092
-19.200 -4.230 -14.987
-11.424 -4.703 -6.696
-17.360 -2.938 -14.489
-19.343 -4.268 -15.092
-9.833 -5.114 -4.714
-19.552 -4.272 -15.297
-17.360 -2.938 -14.489
-19.343 -4.268 -15.092
-17.360 -2.938 -14.489
-11.424 -4.703 -6.696
-19.552 -4.272 -15.297
-19.343 -4.268 -15.092
-19.552 -4.272 -15.297
-19.343 -4.268 -15.092
-19.552 -4.272 -15.297
-8.960 -4.201 -4.736
-9.659 -5.139 -4.505
-17.359 -2.938 -14.487
-17.823 -5.131 -12.900
-5.181 -5.515 0.302
-10.050 -5.092 -4.948
-17.381 -2.932 -14.517
-19.382 -4.264 -15.135
-19.382 -4.264 -15.135
-19.382 -4.264 -15.135
-19.382 -4.264 -15.135
-18.746 -4.927 -13.990
-19.794 -4.216 -15.601
-19.054 -4.904 -14.311
-19.794 -4.216 -15.601
-19.794 -4.216 -15.601
-7.704 -4.355 -3.359
-19.794 -4.216 -15.601
-19.054 -4.904 -14.311
-19.794 -4.216 -15.601
-19.794 -4.216 -15.601
-19.997 -4.221 -15.800
-19.794 -4.216 -15.601
-9.995 -5.050 -4.932
-19.997 -4.221 -15.800
-19.054 -4.904 -14.311
-10.307 -5.047 -5.251
-19.794 -4.216 -15.601
-19.794 -4.216 -15.601
-19.794 -4.216 -15.601
-19.794 -4.216 -15.601
-19.653 -4.178 -15.498
-19.653 -4.178 -15.498
-10.088 -5.054 -5.031
-19.794 -4.216 -15.601
-19.997 -4.221 -15.800
-19.794 -4.216 -15.601
-19.794 -4.216 -15.601
-10.088 -5.054 -5.031
-9.995 -5.050 -4.932
-9.995 -5.050 -4.932
-9.995 -5.050 -4.932
-9.995 -5.050 -4.932
-9.995 -5.050 -4.932
-10.088 -5.054 -5.031
-10.088 -5.054 -5.031
-18.900 -3.927 -14.969
-19.997 -4.221 -15.800
-9.994 -5.050 -4.932
-9.994 -5.050 -4.932
-9.994 -5.050 -4.932
-19.997 -4.221 -15.800
-19.997 -4.221 -15.800
-19.997 -4.221 -15.800
-10.087 -5.055 -5.030
-18.900 -3.927 -14.969
-10.085 -5.028 -5.044
-19.997 -4.221 -15.800
-10.087 -5.055 -5.030
-5.301 -5.241 -0.034
-19.997 -4.221 -15.800
-19.794 -4.216 -15.601
-18.900 -3.927 -14.969
-10.085 -5.028 -5.044
-10.085 -5.028 -5.044
-10.085 -5.028 -5.044
-10.710 -5.975 -4.769
-19.061 -4.903 -14.319
-19.061 -4.903 -14.319
-12.365 -8.483 -3.865
-19.799 -4.216 -15.606
-5.301 -5.241 -0.034
-9.996 -5.050 -4.934
-19.061 -4.903 -14.319
-19.799 -4.216 -15.606
-20.002 -4.220 -15.805
-7.188 -4.364 -2.831
-9.996 -5.050 -4.933
-19.061 -4.903 -14.319
-7.645 -4.476 -3.157
-19.061 -4.903 -14.318
-10.309 -5.047 -5.253
-19.799 -4.216 -15.606
-19.799 -4.216 -15.606
-19.799 -4.216 -15.606
-20.002 -4.220 -15.805
-19.061 -4.903 -14.319
-10.309 -5.047 -5.253
-10.833 -4.962 -6.244
-20.000 -4.221 -15.803
-5.099 -5.543 0.395
-9.995 -5.050 -4.932
-10.088 -5.055 -5.031
-18.902 -3.927 -14.971
-19.799 -4.216 -15.606
-19.799 -4.216 -15.606
-7.188 -4.364 -2.831
-9.996 -5.050 -4.934
-19.799 -4.216 -15.606
-19.799 -4.216 -15.606
-10.090 -5.054 -5.033
-18.816 -4.926 -14.059
-4.560 -5.072 0.543
-11.888 -5.446 -6.448
-10.155 -5.037 -5.102
-5.382 -5.670 0.285
-10.310 -5.045 -5.255
-10.155 -5.037 -5.102
-12.370 -8.483 -3.870
-5.340 -5.692 0.331
-10.816 -4.964 -6.224
-10.155 -5.037 -5.102
-19.799 -4.216 -15.606
-19.061 -4.903 -14.319
-10.309 -5.047 -5.253
-10.155 -5.038 -5.100
-19.799 -4.216 -15.606
-18.816 -4.926 -14.059
-19.061 -4.903 -14.319