-16.146 -6.830 -10.926
-16.146 -6.830 -10.926
-14.684 -4.074 -11.014
-16.573 -5.988 -10.800
-16.649 -5.908 -10.948
-11.817 -9.092 -2.800
-11.277 -8.449 -2.874
-9.302 -8.775 -0.593
-9.503 -8.866 -0.782
-8.222 -9.115 0.547
-16.278 -6.070 -10.392
-11.162 -8.491 -2.717
-16.649 -5.908 -10.948
-16.866 -5.889 -11.187
-8.590 -8.941 0.227
-8.590 -8.941 0.227
-16.866 -5.889 -11.187
-10.562 -8.969 -2.092
-11.817 -9.092 -2.800
-16.866 -5.889 -11.187
-11.277 -8.449 -2.875
-10.287 -9.140 -1.555
-9.122 -9.058 -0.180
-17.393 -6.457 -12.276
-16.649 -5.908 -10.948
-16.036 -4.922 -13.271
-16.170 -4.920 -13.408
-17.393 -6.457 -12.276
-16.866 -5.889 -11.187
-17.847 -6.334 -12.865
-10.418 -8.895 -1.572
-16.870 -5.888 -11.192
-10.563 -8.968 -2.094
-9.636 -8.851 -0.934
-16.870 -5.888 -11.192
-11.207 -8.178 -3.001
-17.398 -6.456 -12.282
-10.168 -8.900 -1.578
-16.870 -5.888 -11.192
-9.668 -8.271 -1.394
-10.300 -9.131 -1.582
-8.425 -9.014 0.253
-9.651 -8.843 -0.952
-9.397 -8.849 -0.691
-9.393 -8.836 -0.687
-9.393 -8.818 -0.709
-9.390 -8.839 -0.664
-17.151 -6.479 -12.014
-15.507 -5.083 -12.567
-11.854 -9.206 -2.722
-9.387 -8.962 -0.628
-10.215 -9.212 -1.423
-16.281 -6.070 -10.395
-16.652 -5.907 -10.951
-10.531 -9.174 -1.810
-16.885 -6.584 -11.639
-16.885 -6.584 -11.639
-10.732 -8.739 -2.063
-10.128 -8.894 -1.377
-11.106 -8.215 -2.866
-10.754 -8.765 -2.116
-10.170 -9.243 -1.332
-11.122 -8.234 -2.864
-9.402 -8.836 -0.700
-10.203 -9.221 -1.398
-9.401 -8.835 -0.695
-11.139 -8.523 -2.662
-10.301 -9.342 -1.320
-11.161 -8.492 -2.716
-7.533 -8.030 0.455
-9.573 -8.882 -0.834
-8.497 -8.971 0.352
-8.627 -9.004 0.252
-10.291 -9.187 -1.491
-8.632 -8.954 0.198
-11.821 -9.091 -2.804
-10.384 -9.125 -1.677
-8.592 -9.003 0.282
-9.568 -8.303 -1.264
-9.574 -8.882 -0.834
-9.341 -8.819 -0.592
-10.163 -9.248 -1.316
-16.704 -6.613 -11.433
-15.824 -5.033 -12.940
-9.810 -8.929 -0.965
-8.591 -8.992 0.277
-8.588 -9.010 0.295
-10.737 -8.738 -2.067
-10.121 -9.490 -0.938
-10.557 -9.404 -1.327
-10.739 -8.735 -2.066
-10.298 -9.344 -1.314
-8.480 -9.151 0.360
-11.106 -8.215 -2.866
-10.357 -9.309 -1.427
-9.401 -8.832 -0.702
-11.201 -11.325 -0.210
-10.737 -8.738 -2.066
-10.145 -9.261 -1.280
-9.262 -8.847 -0.513
-8.481 -9.150 0.359
-16.704 -6.613 -11.433
-10.737 -8.738 -2.066
-16.704 -6.613 -11.432
-16.316 -6.062 -10.432
-9.226 -7.771 -1.468
-9.402 -8.836 -0.695
-9.265 -8.843 -0.521
-9.295 -8.752 -0.611
-10.555 -9.407 -1.320
-9.567 -8.303 -1.264
-11.105 -8.215 -2.864
-10.209 -9.217 -1.409
-10.357 -9.309 -1.427
-8.234 -9.111 0.533
-9.575 -8.881 -0.837
-8.489 -9.148 0.350
-9.574 -8.881 -0.836
-9.266 -8.736 -0.615
-8.629 -8.999 0.245
-9.402 -8.836 -0.695
-9.574 -8.884 -0.835
-9.222 -7.772 -1.462
-10.178 -9.237 -1.347
-9.401 -8.838 -0.692
-9.447 -8.399 -1.014
-11.477 -8.187 -3.284
-9.404 -8.839 -0.703
-9.402 -8.836 -0.696
-9.209 -8.570 -0.654
-9.209 -8.570 -0.654
-8.231 -9.111 0.535
-9.479 -8.852 -0.774
-15.178 -11.602 -3.877
-11.126 -8.233 -2.868
-16.666 -5.905 -10.966
-10.564 -8.970 -2.092
-10.536 -9.173 -1.816
-10.536 -9.174 -1.815
-10.536 -9.174 -1.816
-9.395 -8.836 -0.689
-11.103 -8.216 -2.862
-10.348 -9.150 -1.603
-10.371 -9.135 -1.650
-9.130 -9.054 -0.193
-15.239 -3.918 -11.748
-9.388 -8.849 -0.667
-8.114 -7.727 -0.543
-10.126 -9.273 -1.243
-9.574 -8.881 -0.835
-15.517 -5.081 -12.578
-11.115 -8.212 -2.878
-11.115 -8.212 -2.878
-8.595 -8.999 0.277
-9.575 -8.881 -0.837
-16.666 -5.905 -10.966
-10.564 -8.970 -2.091
-9.560 -8.832 -0.879
-11.213 -8.177 -3.008
-8.036 -8.745 0.624
-11.213 -8.177 -3.008
-9.574 -8.824 -0.897
-8.591 -8.940 0.226
-9.282 -7.615 -3.232
-9.654 -8.843 -0.957
-8.353 -8.997 0.298
-11.282 -8.447 -2.881
-10.418 -9.298 -1.303
-10.419 -9.299 -1.303
-11.213 -8.177 -3.008
-11.213 -8.177 -3.008
-7.612 -8.010 0.358
-9.654 -8.843 -0.957
-10.416 -9.305 -1.292
-8.353 -9.000 0.300
-8.458 -9.018 0.166
-8.353 -9.000 0.300
-11.212 -8.179 -3.006
-16.883 -5.887 -11.205
-10.553 -9.070 -1.988
-10.566 -8.968 -2.098
-15.134 -3.908 -11.663
-9.316 -7.746 -1.581
-9.128 -9.055 -0.190
-9.320 -7.615 -3.287
-11.209 -8.178 -3.003
-10.372 -9.133 -1.653
-8.799 -8.121 -0.979
-9.575 -8.881 -0.836
-10.359 -9.307 -1.432
-9.300 -8.775 -0.598
-9.453 -8.397 -1.022
-10.556 -9.406 -1.322
-10.175 -9.523 -0.969
-16.704 -6.613 -11.432
-8.548 -8.646 0.083
-15.514 -5.081 -12.576
-13.876 -12.639 -1.327
-8.821 -8.105 -1.012
-11.112 -8.213 -2.874
-9.244 -8.735 -0.579
-7.584 -8.682 1.051
-8.628 -9.013 0.261
-9.296 -8.753 -0.610
-10.358 -9.308 -1.430
-9.520 -8.826 -0.809
-9.520 -8.824 -0.814
-8.489 -9.148 0.349
-8.167 -9.252 0.565
-8.445 -9.019 0.178
-10.348 -9.150 -1.603
-8.354 -8.998 0.299
-17.854 -6.333 -12.874
-11.209 -8.178 -3.003
-7.662 -8.030 0.329
-11.209 -8.178 -3.003
-15.237 -3.919 -11.744
-11.209 -8.178 -3.003
-10.373 -9.134 -1.653
-9.294 -8.546 -0.762
-10.416 -9.305 -1.292
-8.353 -9.000 0.301
-8.803 -8.819 -0.035
-10.373 -9.134 -1.653
-9.654 -8.843 -0.956
-9.294 -8.545 -0.762
-8.591 -8.944 0.229
-11.118 -8.487 -2.680
-8.685 -7.957 -0.980
-7.441 -8.034 0.557
-9.393 -8.839 -0.683
-9.472 -8.856 -0.762
-9.433 -8.749 -0.750
-14.840 -4.041 -11.210
-16.582 -5.987 -10.811
-9.215 -8.580 -0.651
-8.630 -8.994 0.240
-9.395 -8.845 -0.672
-10.502 -9.456 -1.189
-10.397 -9.053 -1.842
-10.502 -9.456 -1.189
-10.397 -9.050 -1.844
-10.529 -9.180 -1.800
-7.417 -8.037 0.577
-9.569 -7.385 -2.257
-9.212 -8.580 -0.648
-10.529 -9.180 -1.800
-10.529 -9.179 -1.800
-9.260 -8.856 -0.509
-8.250 -9.106 0.513
-9.965 -8.905 -1.202
-16.697 -6.615 -11.425
-16.656 -5.906 -10.956
-8.771 -7.894 -1.083
-10.106 -8.902 -1.348
-8.501 -8.969 0.346
-9.559 -8.890 -0.815
-10.404 -9.044 -1.861
-7.552 -8.594 0.948
-9.212 -8.580 -0.648
-9.212 -8.581 -0.647
-11.106 -8.215 -2.865
-9.402 -8.836 -0.701
-9.574 -8.881 -0.836
-9.002 -10.598 1.601
-10.553 -9.410 -1.312
-8.489 -9.148 0.350
-9.202 -7.687 -1.594
-10.347 -9.288 -1.449
-9.402 -8.839 -0.688
-7.101 -8.009 0.870
-7.223 -7.829 0.409
-9.208 -8.570 -0.653
-9.273 -8.565 -0.722
-9.465 -8.719 -0.832
-10.346 -9.152 -1.600
-10.345 -9.102 -1.670
-9.462 -8.718 -0.826
-9.402 -8.840 -0.693
-15.177 -11.600 -3.876
-9.985 -8.898 -1.228
-15.182 -11.599 -3.883
-9.214 -8.568 -0.662
-10.226 -9.248 -1.381
-13.521 -12.684 -0.947
-9.436 -8.753 -0.747
-10.208 -9.216 -1.409
-10.127 -8.895 -1.375
-9.135 -9.239 0.037
-8.436 -9.136 0.383
-9.484 -8.851 -0.780
-9.352 -8.917 -0.567
-10.553 -9.410 -1.312
-10.159 -9.164 -1.303
-8.593 -9.013 0.292
-9.402 -8.836 -0.696
-9.211 -8.570 -0.656
-10.006 -7.236 -2.825
-10.127 -8.895 -1.375
-10.127 -8.895 -1.375
-13.521 -12.684 -0.948
-7.477 -8.051 0.532
-7.937 -8.777 0.759
-9.696 -7.223 -2.520
-8.444 -9.025 0.186
-10.006 -7.236 -2.825
-10.357 -9.309 -1.427
-8.536 -8.300 -0.342
-8.489 -9.148 0.349
-10.553 -9.410 -1.313
-10.208 -9.219 -1.405
-9.214 -8.569 -0.661
-7.694 -8.681 0.941
-10.553 -9.410 -1.313
-7.616 -8.051 0.399
-7.584 -8.049 0.424
-8.435 -9.138 0.385
-16.709 -6.612 -11.438
-16.662 -5.906 -10.962
-9.432 -8.755 -0.743
-9.513 -8.831 -0.798
-10.403 -9.044 -1.859
-10.107 -8.902 -1.349
-7.437 -8.043 0.569
-15.127 -11.683 -3.757
-10.536 -9.173 -1.816
-8.506 -9.141 0.329
-10.418 -9.088 -1.814
-7.967 -8.020 0.042
-9.396 -8.852 -0.665
-9.252 -8.854 -0.486
-8.543 -8.617 0.059
-8.044 -8.372 0.176
-10.405 -9.042 -1.864
-10.107 -8.902 -1.349
-7.601 -8.062 0.425
-8.511 -8.981 0.015
-7.576 -8.058 0.441
-8.545 -8.110 -0.731
-9.214 -8.580 -0.649
-9.395 -8.843 -0.680
-9.261 -8.851 -0.533
-16.876 -6.587 -11.627
-16.666 -5.905 -10.966
-10.564 -8.970 -2.092
-10.564 -8.970 -2.092
-15.194 -11.585 -3.908
-9.581 -8.799 -0.961
-9.483 -8.866 -0.739
-9.288 -8.759 -0.598
-11.126 -8.233 -2.869
-9.464 -8.721 -0.826
-8.179 -8.042 -0.156
-9.223 -8.565 -0.673
-9.783 -8.942 -0.991
-9.470 -8.706 -0.861
-8.960 -7.495 -1.502
-8.849 -9.850 0.824
-9.097 -9.253 0.076
-9.217 -8.567 -0.665
-9.217 -8.567 -0.665
-7.616 -8.051 0.399
-10.355 -9.310 -1.423
-8.629 -9.009 0.255
-9.216 -8.568 -0.663
-8.522 -8.301 -0.327
-7.452 -8.031 0.543
-9.484 -8.850 -0.780
-9.402 -8.836 -0.695
-9.296 -8.751 -0.613
-9.216 -8.568 -0.664
-7.557 -8.017 0.429
-9.985 -8.898 -1.228
-10.355 -9.310 -1.423
-8.500 -8.971 0.349
-8.057 -8.362 0.153
-8.892 -10.508 1.605
-9.308 -8.781 -0.591
-9.006 -7.535 -1.499
-10.128 -8.894 -1.376
-9.215 -8.567 -0.663
-7.452 -8.031 0.542
-8.963 -7.539 -1.467
-13.521 -12.684 -0.947
-9.214 -8.569 -0.661
-10.127 -8.895 -1.375
-9.399 -8.837 -0.670
-10.354 -9.311 -1.422
-8.629 -8.988 0.235
-8.595 -8.984 0.262
-9.347 -8.784 -0.626
-10.222 -9.251 -1.373
-7.616 -8.051 0.399
-7.696 -8.681 0.938
-13.521 -12.684 -0.947
-12.866 -12.786 -0.191
-10.354 -9.311 -1.422
-8.543 -8.607 0.049
-7.616 -8.051 0.399
-9.306 -8.773 -0.613
-9.584 -8.812 -0.955
-8.595 -8.994 0.271
-15.184 -11.591 -3.890
-9.275 -8.565 -0.724
-8.349 -8.664 0.230
-10.011 -7.234 -2.832
-7.424 -8.028 0.562
-11.713 -12.321 0.499
-10.206 -9.220 -1.402
-10.225 -9.251 -1.376
-7.107 -8.006 0.861
-8.534 -7.790 -0.912
-9.216 -8.568 -0.663
-8.988 -9.230 0.158
-7.616 -8.051 0.399
-9.267 -8.842 -0.531
-8.499 -8.970 0.349
-7.616 -8.051 0.399
-10.027 -7.256 -2.824
-9.520 -8.825 -0.812
-9.211 -8.569 -0.657
-7.215 -8.005 0.761
-9.319 -8.844 -0.560
-9.402 -8.838 -0.691
-10.355 -9.310 -1.423
-9.216 -8.568 -0.663
-7.582 -8.683 1.054
-9.518 -8.826 -0.806
-9.299 -8.748 -0.619
-8.849 -9.850 0.825
-10.739 -8.738 -2.068
-8.191 -8.328 -0.021
-7.471 -8.048 0.536
-10.147 -9.257 -1.288
-10.147 -9.258 -1.286
-7.531 -8.029 0.457
-8.627 -8.997 0.245
-8.424 -9.037 0.235
-7.472 -8.048 0.534
-10.129 -8.894 -1.378
-7.617 -8.050 0.397
-10.168 -9.287 -1.265
-9.273 -8.564 -0.722
-10.129 -8.894 -1.378
-9.878 -9.409 -0.665
-9.388 -8.855 -0.612
-7.418 -8.029 0.568
-9.478 -8.851 -0.773
-7.617 -8.050 0.397
-8.424 -9.037 0.235
-8.849 -9.851 0.825
-9.435 -8.750 -0.749
-9.987 -8.897 -1.230
-9.339 -8.657 -0.744
-8.494 -8.967 0.351
-8.529 -8.616 0.073
-6.946 -7.750 0.767
-8.797 -8.135 -0.968
-9.295 -8.745 -0.619
-7.616 -8.053 0.401
-11.216 -11.315 -0.235
-8.569 -9.066 0.461
-9.206 -8.570 -0.651
-9.206 -8.569 -0.652
-10.134 -9.310 -1.198
-10.113 -9.283 -1.217
-9.299 -8.563 -0.749
-8.848 -9.851 0.826
-10.113 -9.282 -1.219
-10.113 -9.284 -1.211
-8.411 -9.043 0.262
-13.634 -12.986 -0.873
-10.113 -9.282 -1.217
-8.848 -9.851 0.826
-7.616 -8.053 0.401
-9.478 -8.854 -0.769
-7.574 -8.485 0.605
-9.874 -9.416 -0.649
-13.315 -14.154 0.758
-7.780 -8.614 0.744
-10.113 -9.283 -1.216
-10.127 -8.897 -1.373
-14.771 -11.642 -3.441
-10.132 -9.310 -1.196
-10.092 -7.217 -2.933
-10.268 -9.363 -1.256
-8.797 -8.137 -0.966
-9.985 -8.900 -1.225
-8.411 -9.044 0.262
-9.942 -7.196 -2.796
-9.876 -9.416 -0.651
-9.865 -9.433 -0.619
-9.360 -8.782 -0.638
-11.400 -12.256 0.815
-8.848 -9.856 0.831
-9.304 -8.819 -0.540
-9.314 -10.926 1.068
-7.574 -8.485 0.605
-9.399 -8.850 -0.676
-10.127 -8.897 -1.373
-9.293 -8.756 -0.605
-9.235 -8.045 -1.392
-9.398 -8.839 -0.676
-8.411 -9.044 0.262
-9.879 -9.416 -0.654
-9.570 -8.885 -0.826
-8.545 -7.893 -0.873
-10.092 -7.217 -2.933
-9.326 -8.852 -0.545
-8.388 -8.860 -0.012
-9.301 -8.787 -0.577
-10.305 -9.427 -1.055
-7.716 -8.885 1.049
-10.112 -9.285 -1.212
-9.942 -7.193 -2.801
-9.876 -9.416 -0.651
-13.329 -14.196 0.791
-9.155 -7.680 -3.032
-8.627 -8.973 0.222
-8.624 -8.999 0.249
-7.616 -8.053 0.401
-11.935 -11.265 -0.688
-8.262 -8.299 -0.128
-7.616 -8.053 0.401
-7.665 -8.755 1.035
-9.902 -9.442 -0.590
-9.098 -8.050 -1.251
-7.547 -8.554 0.647
-9.360 -8.859 -0.610
-10.092 -7.217 -2.933
-9.206 -8.569 -0.651
-7.716 -8.884 1.048
-9.098 -8.049 -1.251
-8.411 -9.044 0.262
-10.132 -9.310 -1.195
-7.574 -8.485 0.605
-8.411 -9.044 0.262
-9.315 -10.926 1.068
-12.794 -12.745 -0.155
-7.578 -8.086 0.474
-10.253 -9.211 -1.416
-10.150 -9.404 -0.928
-9.422 -8.933 -0.648
-9.098 -8.049 -1.251
-8.313 -8.924 0.443
-12.790 -12.694 -0.203
-12.794 -12.745 -0.155
-7.655 -8.796 1.078
-12.793 -12.740 -0.160
-8.422 -9.142 0.401
-12.794 -12.746 -0.155
-10.307 -9.421 -1.064
-9.476 -8.854 -0.767
-8.848 -9.852 0.826
-9.205 -8.570 -0.650
-7.543 -8.596 0.933
-13.935 -13.570 -0.390
-9.302 -8.821 -0.668
-8.411 -9.044 0.262
-8.345 -8.666 0.236
-8.848 -9.852 0.826
-8.546 -7.902 -0.867
-8.411 -9.044 0.262
-10.150 -9.404 -0.928
-9.475 -8.855 -0.766
-10.132 -9.311 -1.195
-12.794 -12.745 -0.155
-8.849 -9.854 0.829
-14.287 -11.560 -3.183
-9.473 -8.854 -0.764
-8.345 -8.666 0.236
-12.602 -13.006 0.372
-8.934 -10.310 1.375
-8.849 -9.853 0.827
-7.544 -8.599 0.953
-10.704 -12.067 1.316
-8.262 -8.299 -0.127
-13.383 -13.704 -0.256
-8.546 -7.857 -0.893
-8.569 -9.066 0.461
-8.933 -10.310 1.376
-12.714 -13.266 0.509
-8.261 -8.300 -0.126
-9.199 -8.572 -0.642
-10.132 -9.309 -1.196
-8.346 -8.665 0.234
-8.262 -8.299 -0.127
-10.114 -9.283 -1.216
-10.055 -8.900 -1.291
-8.978 -10.571 1.591
-8.934 -10.311 1.376
-9.421 -8.938 -0.648
-7.469 -8.051 0.540
-8.590 -8.989 0.274
-8.848 -9.852 0.826
-12.782 -12.693 -0.205
-15.303 -12.285 -3.259
-9.257 -8.834 -0.516
-8.411 -9.044 0.262
-8.266 -9.007 0.568
-8.117 -9.897 1.585
-8.993 -10.583 1.591
-8.266 -9.007 0.567
-11.946 -11.251 -0.707
-7.780 -8.614 0.744
-9.098 -8.049 -1.251
-12.793 -12.738 -0.162
-8.849 -9.852 0.826
-7.510 -8.068 0.486
-7.665 -8.755 1.035
-12.793 -12.747 -0.153
-7.781 -8.613 0.743
-7.545 -8.597 0.959
-8.411 -9.044 0.261
-27.437 -12.405 -15.940
-22.819 -12.097 -13.798
-21.968 -12.150 -12.890
-16.107 -12.170 -4.241
-27.235 -12.407 -15.738
-27.454 -12.402 -15.961
-27.454 -12.402 -15.961
-19.322 -11.155 -8.296
-19.322 -11.155 -8.296
-13.570 -12.710 -0.970
-15.916 -11.460 -4.770
-14.156 -13.556 -0.620
-14.156 -13.556 -0.620
-13.655 -12.694 -1.071
-16.386 -13.446 -4.227
-15.747 -12.192 -3.780
-14.157 -13.556 -0.621
-13.934 -14.185 -0.209
-12.981 -13.797 0.759
-13.654 -12.693 -1.071
-15.676 -11.491 -4.471
-13.099 -12.554 -0.592
-15.676 -11.491 -4.471
-13.655 -12.694 -1.072
-14.265 -12.673 -1.717
-14.173 -13.558 -0.636
-13.098 -12.555 -0.591
-14.156 -13.556 -0.620
-16.245 -13.459 -4.053
-13.430 -14.193 0.691
-12.846 -13.499 0.615
-13.101 -12.553 -0.596
-13.430 -14.193 0.691
-13.430 -14.193 0.691
-14.077 -13.546 -0.556
-13.430 -14.193 0.691
-13.587 -14.165 0.497
-15.571 -12.257 -3.550
-13.933 -14.184 -0.209
-16.389 -13.446 -4.230
-14.077 -13.546 -0.555
-12.926 -13.452 0.494
-13.100 -12.553 -0.595
-13.587 -14.165 0.497
-15.322 -11.587 -4.030
-13.099 -12.554 -0.592
-13.099 -12.554 -0.592
-13.431 -14.193 0.691
-13.431 -14.193 0.691
-12.670 -12.606 -0.210
-14.076 -13.545 -0.555
-12.670 -12.606 -0.210
-15.322 -11.587 -4.030
-12.670 -12.606 -0.210
-15.339 -12.283 -3.294
-15.322 -11.587 -4.030
-13.933 -14.185 -0.208
-14.162 -13.536 -0.650
-13.656 -12.693 -1.073
-13.119 -12.548 -0.619
-15.330 -13.601 -2.374
-13.119 -12.548 -0.619
-12.995 -13.790 0.738
-15.471 -12.283 -3.431
-13.441 -14.192 0.680
-13.413 -14.199 0.717
-15.378 -12.292 -3.329
-14.055 -13.556 -0.524
-16.439 -13.374 -4.252
-13.413 -14.199 0.717
-13.036 -13.420 0.353
-12.920 -12.743 -0.272
-12.654 -12.614 -0.188
-13.456 -14.193 0.666
-13.456 -14.193 0.666
-14.140 -13.568 -0.593
-15.267 -11.601 -3.960
-15.506 -12.265 -3.475
-12.986 -13.818 0.776
-14.137 -13.570 -0.588
-15.376 -12.309 -3.315
-12.651 -12.617 -0.181
-12.651 -12.617 -0.181
-15.506 -12.265 -3.475
-14.137 -13.570 -0.588
-13.074 -12.558 -0.564
-14.058 -13.560 -0.522
-13.884 -12.630 -1.344
-16.377 -13.367 -4.186
-15.323 -12.151 -3.515
-15.398 -12.293 -3.347
-14.159 -13.563 -0.617
-12.972 -12.769 -0.313
-13.106 -12.553 -0.600
-16.474 -13.367 -4.293
-12.972 -12.769 -0.313
-15.270 -11.598 -3.968
-15.526 -12.261 -3.499
-12.956 -12.762 -0.303
-12.608 -12.864 0.182
-14.160 -13.563 -0.617
-15.398 -12.292 -3.348
-13.107 -12.552 -0.603
-14.160 -13.563 -0.618
-14.160 -13.563 -0.618
-13.107 -12.552 -0.603
-13.107 -12.552 -0.603
-12.358 -12.339 -0.075
-13.411 -14.202 0.721
-15.269 -11.592 -3.968
-16.372 -13.366 -4.186
-12.969 -12.768 -0.311
-13.094 -12.553 -0.589
-12.969 -12.768 -0.310
-13.940 -14.222 -0.189
-13.412 -14.204 0.721
-15.527 -12.261 -3.500
-13.411 -14.202 0.720
-13.108 -12.552 -0.605
-16.374 -13.366 -4.187
-15.403 -12.291 -3.354
-15.403 -12.291 -3.354
-13.109 -12.552 -0.605
-14.161 -13.563 -0.618
-12.858 -12.756 -0.212
-13.107 -12.552 -0.603
-13.063 -13.805 0.686
-13.107 -12.552 -0.603
-15.314 -13.623 -2.301
-14.160 -13.563 -0.617
-13.107 -12.552 -0.603
-15.202 -11.580 -3.922
-12.969 -12.767 -0.311
-12.665 -12.611 -0.201
-12.871 -12.766 -0.216
-13.106 -12.553 -0.600
-15.277 -12.181 -3.292
-13.134 -12.555 -0.627
-14.160 -13.563 -0.617
-14.160 -13.563 -0.617
-13.107 -12.553 -0.601
-14.160 -13.563 -0.617
-14.885 -11.654 -3.531
-13.107 -12.553 -0.602
-14.178 -13.564 -0.634
-13.841 -13.194 -0.688
-13.454 -14.196 0.670
-13.412 -14.203 0.721
-13.412 -14.203 0.721
-12.666 -12.611 -0.202
-13.107 -12.553 -0.602
-13.454 -14.196 0.670
-13.107 -12.553 -0.602
-12.871 -12.767 -0.215
-14.218 -13.561 -0.678
-13.106 -12.553 -0.600
-13.454 -14.196 0.670
-15.399 -12.293 -3.348
-14.160 -13.563 -0.617
-13.854 -14.245 -0.066
-13.410 -14.202 0.721
-13.108 -12.551 -0.605
-15.315 -12.377 -3.377
-13.411 -14.203 0.721
-14.161 -13.563 -0.618
-14.219 -13.561 -0.679
-12.950 -12.759 -0.300
-15.448 -12.248 -3.439
-12.858 -12.757 -0.211
-14.179 -13.564 -0.635
-14.160 -13.563 -0.618
-13.842 -13.194 -0.689
-15.401 -12.287 -3.352
-12.859 -12.759 -0.210
-13.865 -13.194 -0.712
-11.243 -11.327 -0.268
-13.411 -14.201 0.720
-12.859 -12.758 -0.210
-13.454 -14.196 0.670
-14.160 -13.563 -0.618
-13.108 -12.552 -0.604
-12.956 -12.763 -0.302
-11.243 -11.327 -0.267
-13.642 -13.897 -0.213
-13.108 -12.552 -0.604
-16.439 -13.370 -4.250
-13.410 -14.202 0.721
-15.400 -12.287 -3.352
-13.960 -14.207 -0.225
-11.243 -11.327 -0.269
-12.687 -12.612 -0.222
-13.108 -12.552 -0.604
-12.853 -12.758 -0.205
-14.179 -13.564 -0.636
-14.161 -13.563 -0.618
-14.161 -13.563 -0.618
-13.869 -14.238 -0.111
-13.108 -12.552 -0.604
-13.959 -14.180 -0.247
-13.108 -12.552 -0.604
-12.932 -13.586 0.440
-12.856 -12.759 -0.206
-13.099 -13.429 0.300
-12.667 -12.610 -0.204
-14.219 -13.560 -0.680
-16.380 -13.367 -4.189
-13.015 -13.455 0.406
-15.402 -12.294 -3.350
-12.903 -13.606 0.483
-14.876 -11.650 -3.528
-13.454 -14.196 0.670
-12.856 -12.760 -0.207
-14.219 -13.561 -0.679
-13.107 -12.552 -0.603
-12.953 -12.761 -0.301
-12.605 -12.860 0.180
-15.407 -12.299 -3.350
-16.439 -13.370 -4.250
-15.290 -12.287 -3.240
-12.857 -12.757 -0.210
-12.954 -12.761 -0.302
-13.411 -14.202 0.720
-13.108 -12.552 -0.604
-14.219 -13.561 -0.679
-12.666 -12.611 -0.203
-14.807 -11.633 -3.480
-12.856 -12.758 -0.207
-14.179 -13.564 -0.635
-14.179 -13.564 -0.635
-14.219 -13.561 -0.679
-13.359 -14.189 0.755
-13.454 -14.196 0.671
-13.150 -12.551 -0.648
-12.855 -12.759 -0.205
-13.921 -13.186 -0.776
-13.411 -14.202 0.721
-12.667 -12.610 -0.203
-13.867 -13.194 -0.714
-14.161 -13.563 -0.619
-13.411 -14.202 0.721
-13.099 -13.429 0.300
-13.108 -12.552 -0.605
-13.138 -12.550 -0.637
-13.150 -12.551 -0.648
-11.243 -11.327 -0.268
-13.151 -12.550 -0.649
-13.109 -12.552 -0.605
-12.965 -12.765 -0.312
-12.908 -13.475 0.536
-13.138 -12.550 -0.637
-13.411 -14.203 0.721
-12.856 -12.757 -0.209
-13.138 -12.550 -0.636
-13.411 -14.202 0.721
-13.411 -14.202 0.721
-14.160 -13.563 -0.618
-14.179 -13.564 -0.635
-15.401 -12.291 -3.352
-12.856 -12.758 -0.208
-12.997 -13.429 0.402
-14.219 -13.561 -0.679
-13.108 -12.552 -0.604
-13.108 -12.552 -0.604
-13.108 -12.552 -0.604
-13.108 -12.552 -0.604
-13.410 -14.202 0.721
-13.136 -12.554 -0.630
-14.219 -13.561 -0.679
-13.803 -14.267 -0.018
-14.161 -13.563 -0.619
-14.179 -13.564 -0.636
-13.237 -13.395 -0.006
-13.411 -14.201 0.720
-14.179 -13.564 -0.636
-12.950 -12.758 -0.301
-15.407 -12.299 -3.351
-13.108 -12.552 -0.604
-14.179 -13.563 -0.636
-14.219 -13.561 -0.680
-12.667 -12.610 -0.204
-13.955 -14.189 -0.233
-15.302 -13.631 -2.277
-15.277 -12.390 -3.325
-13.959 -14.191 -0.238
-15.401 -12.291 -3.353
-13.139 -12.550 -0.637
-14.081 -13.552 -0.552
-15.299 -12.294 -3.242
-14.141 -13.549 -0.616
-13.912 -13.180 -0.772
-14.141 -13.551 -0.615
-12.654 -12.614 -0.187
-12.931 -13.432 0.471
-13.984 -14.214 -0.238
-13.940 -14.254 -0.181
-16.440 -13.368 -4.252
-12.484 -14.158 0.838
-12.915 -13.473 0.527
-12.960 -13.729 0.726
-15.296 -12.282 -3.252
-13.723 -13.192 -0.574
-12.667 -12.613 -0.202
-13.101 -12.548 -0.601
-12.667 -12.612 -0.202
-13.101 -12.548 -0.601
-13.424 -14.198 0.705
-13.723 -13.192 -0.575
-15.306 -12.290 -3.255
-12.924 -12.746 -0.275
-14.087 -13.551 -0.560
-13.143 -12.547 -0.644
-14.147 -13.548 -0.624
-16.380 -13.366 -4.190
-13.424 -14.199 0.706
-13.101 -12.548 -0.600
-15.406 -12.286 -3.363
-15.295 -12.278 -3.252
-13.843 -13.189 -0.694
-14.185 -13.562 -0.643
-16.381 -13.366 -4.191
-14.225 -13.559 -0.687
-13.101 -12.548 -0.600
-12.913 -13.474 0.531
-12.666 -12.613 -0.201
-13.143 -12.547 -0.644
-15.213 -12.270 -3.184
-14.167 -13.561 -0.626
-12.354 -12.338 -0.072
-15.407 -12.284 -3.363
-13.942 -14.220 -0.201
-14.088 -13.551 -0.560
-13.006 -13.803 0.742
-12.666 -12.613 -0.201
-13.066 -13.803 0.680
-15.297 -12.282 -3.253
-12.552 -12.854 0.237
-13.842 -13.189 -0.694
-12.355 -12.338 -0.073
-14.088 -13.550 -0.561
-13.463 -14.204 0.672
-12.759 -13.505 0.707
-16.375 -13.366 -4.189
-13.989 -13.552 -0.460
-13.143 -12.547 -0.645
-13.721 -13.193 -0.572
-14.147 -13.548 -0.624
-15.381 -12.238 -3.337
-12.844 -13.508 0.625
-13.424 -14.198 0.705
-12.909 -13.603 0.475
-13.985 -14.216 -0.237
-15.408 -12.282 -3.366
-12.666 -12.613 -0.202
-13.101 -12.548 -0.601
-15.408 -12.282 -3.366
-13.047 -13.867 0.760
-13.143 -12.547 -0.644
-12.666 -12.613 -0.200
-13.143 -12.548 -0.643
-13.101 -12.548 -0.600
-12.757 -13.506 0.709
-13.463 -14.202 0.671
-12.666 -12.613 -0.201
-13.417 -14.108 0.612
-14.225 -13.559 -0.687
-16.478 -13.366 -4.298
-12.711 -12.618 -0.241
-15.296 -12.282 -3.253
-13.989 -13.552 -0.460
-15.285 -12.246 -3.265
-16.479 -13.366 -4.299
-13.381 -14.112 0.605
-16.381 -13.366 -4.191
-15.410 -12.286 -3.368
-12.667 -12.613 -0.202
-12.830 -12.744 -0.184
-13.867 -13.189 -0.719
-14.167 -13.561 -0.626
-14.167 -13.561 -0.626
-14.088 -13.551 -0.560
-14.167 -13.561 -0.626
-13.989 -13.553 -0.460
-15.306 -12.289 -3.255
-15.410 -12.286 -3.368
-12.553 -12.854 0.236
-13.989 -13.552 -0.460
-12.667 -12.613 -0.202
-16.381 -13.366 -4.191
-14.088 -13.550 -0.561
-14.088 -13.550 -0.561
-14.147 -13.550 -0.622
-14.167 -13.561 -0.626
-13.985 -14.213 -0.246
-14.225 -13.559 -0.687
-14.087 -13.553 -0.558
-16.381 -13.366 -4.191
-13.985 -14.216 -0.237
-13.066 -13.803 0.680
-12.830 -12.744 -0.183
-14.166 -13.561 -0.626
-14.225 -13.559 -0.687
-13.007 -13.802 0.742
-12.945 -13.429 0.453
-12.666 -12.613 -0.201
-13.100 -12.548 -0.600
-14.166 -13.561 -0.625
-13.142 -12.547 -0.643
-13.409 -14.176 0.685
-16.477 -13.366 -4.296
-15.317 -12.377 -3.379
-13.066 -13.803 0.680
-14.225 -13.559 -0.687
-12.879 -13.819 0.888
-14.087 -13.549 -0.562
-13.101 -12.548 -0.600
-13.065 -13.807 0.685
-16.381 -13.366 -4.191
-13.144 -12.547 -0.645
-15.418 -12.299 -3.363
-12.667 -12.613 -0.202
-14.167 -13.561 -0.626
-14.088 -13.551 -0.560
-15.318 -12.376 -3.381
-15.318 -12.376 -3.381
-13.066 -13.803 0.680
-13.463 -14.202 0.671
-15.409 -12.285 -3.367
-16.375 -13.366 -4.189
-12.667 -13.305 0.615
-13.101 -12.548 -0.601
-12.667 -12.613 -0.202
-12.553 -12.854 0.236
-13.144 -12.547 -0.645
-13.986 -14.213 -0.247
-15.268 -13.646 -2.222
-12.666 -12.612 -0.203
-14.167 -13.561 -0.626
-13.424 -14.199 0.706
-13.101 -12.548 -0.600
-12.437 -12.930 0.474
-16.478 -13.366 -4.298
-13.921 -13.180 -0.781
-12.553 -12.854 0.236
-13.065 -13.802 0.679
-12.711 -12.618 -0.241
-14.147 -13.548 -0.624
-14.087 -13.551 -0.560
-13.101 -12.548 -0.600
-12.918 -13.477 0.530
-13.985 -14.214 -0.246
-13.921 -13.180 -0.781
-16.478 -13.366 -4.298
-15.268 -13.646 -2.222
-12.553 -12.853 0.235
-16.485 -13.366 -4.301
-13.101 -12.548 -0.601
-13.986 -14.213 -0.247
-13.985 -14.215 -0.237
-14.147 -13.548 -0.624
-15.415 -12.280 -3.363
-12.666 -12.613 -0.201
-14.147 -13.548 -0.624
-15.319 -12.376 -3.382
-12.553 -12.854 0.236
-13.424 -14.199 0.706
-12.666 -12.613 -0.201
-13.065 -13.805 0.683
-13.006 -13.805 0.745
-14.087 -13.551 -0.560
-15.409 -12.286 -3.367
-15.296 -12.282 -3.253
-15.306 -12.289 -3.255
-15.410 -12.286 -3.368
-16.381 -13.366 -4.191
-13.921 -13.180 -0.782
-13.942 -14.220 -0.202
-8.252 -8.047 -0.249
-11.057 -11.342 -0.069
-13.886 -12.630 -1.347
-13.106 -12.553 -0.601
-13.531 -12.676 -0.966
-13.531 -12.676 -0.966
-13.859 -14.159 -0.171
-11.125 -11.326 -0.155
-13.531 -12.675 -0.968
-15.205 -11.578 -3.927
-12.872 -12.765 -0.218
-12.723 -13.507 0.746
-12.872 -12.764 -0.218
-13.412 -14.202 0.720
-13.532 -12.675 -0.968
-13.685 -13.194 -0.535
-12.874 -12.765 -0.219
-11.205 -11.324 -0.214
-12.666 -12.611 -0.202
-12.871 -12.796 -0.190
-12.874 -12.765 -0.219
-11.119 -11.327 -0.148
-12.874 -12.765 -0.219
-13.233 -13.923 0.490
-11.088 -11.323 -0.101
-12.874 -12.764 -0.220
-12.874 -12.764 -0.220
-11.720 -12.246 0.491
-12.872 -12.760 -0.218
-13.412 -14.202 0.720
-13.292 -14.142 0.787
-12.874 -12.763 -0.221
-12.874 -12.765 -0.220
-12.666 -12.611 -0.202
-11.205 -11.324 -0.214
-12.874 -12.759 -0.224
-13.106 -12.553 -0.601
-12.850 -13.467 0.584
-13.106 -12.553 -0.601
-12.873 -12.766 -0.218
-12.524 -12.866 0.266
-12.917 -13.429 0.478
-16.368 -13.392 -4.174
-13.202 -12.688 -0.607
-12.813 -13.441 0.597
-12.794 -12.746 -0.155
-12.774 -12.718 -0.202
-11.084 -11.314 -0.109
-13.212 -13.396 0.031
-11.088 -11.312 -0.113
-13.091 -12.554 -0.585
-12.957 -13.473 0.487
-15.213 -12.384 -3.286
-11.213 -11.314 -0.233
-14.079 -13.548 -0.554
-12.796 -13.350 0.416
-12.432 -12.844 0.340
-11.094 -11.313 -0.118
-12.530 -12.848 0.246
-16.399 -13.374 -4.218
-12.806 -12.737 -0.177
-13.112 -12.548 -0.612
-13.809 -14.212 -0.034
-12.545 -12.845 0.226
-11.125 -11.316 -0.165
-12.573 -12.840 0.195
-14.138 -13.546 -0.617
-11.089 -11.311 -0.115
-13.112 -12.548 -0.612
-13.433 -14.201 0.703
-12.808 -13.481 0.644
-13.112 -12.548 -0.612
-13.112 -12.548 -0.612
-13.112 -12.548 -0.612
-11.125 -11.316 -0.165
-8.418 -7.749 -0.717
-13.112 -12.548 -0.612
-13.112 -12.548 -0.612
-14.140 -13.544 -0.621
-13.915 -13.179 -0.777
-13.112 -12.547 -0.613
-13.112 -12.547 -0.613
-12.668 -12.608 -0.207
-13.753 -14.206 -0.134
-13.112 -12.547 -0.613
-13.112 -12.547 -0.613
-12.668 -12.610 -0.205
-13.313 -14.184 0.800
-12.668 -12.608 -0.207
-12.440 -12.847 0.334
-13.837 -13.187 -0.691
-13.915 -13.178 -0.777
-14.106 -13.561 -0.567
-13.113 -12.548 -0.612
-12.668 -12.609 -0.206
-13.155 -12.547 -0.656
-13.113 -12.548 -0.612
-11.720 -12.378 0.606
-13.285 -14.106 0.760
-13.412 -14.200 0.719
-11.087 -11.313 -0.112
-12.950 -13.435 0.456
-13.304 -14.167 0.781
-12.800 -12.754 -0.150
-16.399 -13.375 -4.218
-13.917 -13.180 -0.777
-13.449 -14.197 0.679
-13.837 -13.188 -0.690
-15.405 -12.288 -3.362
-12.916 -13.473 0.528
-14.440 -11.662 -3.241
-12.420 -12.850 0.360
-13.451 -14.204 0.683
-11.129 -11.319 -0.165
-12.845 -13.430 0.553
-12.912 -13.472 0.530
-12.668 -12.609 -0.206
-14.086 -13.551 -0.558
-8.363 -7.743 -0.669
-13.188 -13.387 0.033
-13.967 -13.552 -0.438
-13.412 -14.200 0.719
-13.451 -14.204 0.684
-13.946 -14.218 -0.205
-13.005 -13.803 0.744
-12.799 -12.720 -0.182
-13.226 -13.395 0.015
-13.155 -12.547 -0.656
-13.113 -12.548 -0.613
-12.440 -12.849 0.336
-13.188 -13.387 0.033
-13.412 -14.200 0.719
-14.145 -13.549 -0.621
-11.124 -11.317 -0.162
-13.412 -14.200 0.719
-14.145 -13.549 -0.621
-14.145 -13.549 -0.621
-11.414 -12.262 0.815
-15.325 -12.271 -3.298
-16.481 -13.365 -4.302
-11.127 -11.318 -0.164
-15.366 -12.295 -3.314
-14.146 -13.548 -0.622
-16.472 -13.364 -4.290
-14.765 -11.657 -3.448
-13.268 -14.176 0.854
-13.968 -13.552 -0.439
-13.861 -14.226 -0.115
-13.114 -12.548 -0.614
-11.090 -11.318 -0.108
-13.278 -14.112 0.738
-13.153 -13.945 0.736
-13.114 -12.548 -0.614
-14.095 -13.551 -0.568
-13.789 -14.087 -0.159
-14.146 -13.549 -0.622
-13.917 -13.180 -0.777
-13.451 -14.204 0.683
-13.114 -12.548 -0.614
-12.428 -12.849 0.350
-14.086 -13.551 -0.559
-13.114 -12.548 -0.614
-12.473 -12.598 -0.005
-14.146 -13.550 -0.620
-12.713 -12.614 -0.247
-15.405 -12.288 -3.361
-13.356 -14.199 0.770
-15.405 -12.288 -3.361
-12.471 -12.860 0.314
-13.114 -12.548 -0.614
-12.750 -12.591 -0.204
-12.669 -12.609 -0.207
-13.226 -13.395 0.015
-12.528 -12.851 0.252
-16.487 -13.365 -4.304
-13.156 -12.547 -0.658
-13.156 -12.547 -0.658
-13.188 -13.386 0.033
-12.792 -12.797 -0.107
-12.809 -13.477 0.636
-13.155 -12.547 -0.657
-12.799 -12.742 -0.163
-16.480 -13.365 -4.301
-12.871 -13.396 0.472
-12.668 -12.609 -0.207
-13.916 -13.180 -0.776
-13.838 -13.189 -0.690
-14.145 -13.548 -0.622
-8.363 -7.743 -0.669
-12.811 -13.481 0.641
-15.402 -12.288 -3.358
-13.155 -12.547 -0.657
-12.540 -12.850 0.238
-12.844 -13.430 0.554
-12.442 -12.848 0.335
-15.322 -12.277 -3.293
-12.564 -12.859 0.223
-13.064 -13.807 0.687
-12.600 -12.973 0.189
-13.113 -12.548 -0.613
-12.988 -13.428 0.410
-12.713 -12.614 -0.247
-12.960 -13.474 0.485
-15.325 -12.269 -3.301
-11.091 -11.314 -0.114
-13.451 -14.204 0.683
-13.156 -12.547 -0.658
-14.743 -11.657 -3.413
-15.322 -12.374 -3.387
-12.669 -12.609 -0.207
-12.409 -12.340 -0.126
-12.409 -12.340 -0.126
-13.156 -12.548 -0.657
-13.114 -12.548 -0.614
-13.946 -14.218 -0.206
-8.472 -7.738 -0.786
-13.156 -12.547 -0.658
-13.946 -14.218 -0.206
-12.989 -13.426 0.406
-13.114 -12.548 -0.614
-12.713 -12.614 -0.247
-12.426 -12.849 0.352
-13.114 -12.548 -0.614
-13.114 -12.548 -0.614
-13.156 -12.547 -0.658
-15.324 -12.277 -3.295
-12.525 -12.852 0.256
-12.908 -13.434 0.496
-12.809 -13.482 0.644
-15.415 -12.295 -3.364
-15.406 -12.287 -3.362
-15.326 -12.276 -3.298
-13.719 -13.192 -0.571
-7.822 -7.557 -0.342
-12.822 -13.322 0.466
-13.156 -12.547 -0.657
-11.090 -11.314 -0.113
-12.695 -12.654 -0.189
-15.414 -12.295 -3.364
-14.146 -13.548 -0.622
-12.526 -12.853 0.256
-12.526 -12.851 0.255
-7.820 -7.563 -0.364
-13.295 -14.113 0.723
-13.317 -14.192 0.802
-12.810 -13.481 0.643
-12.427 -12.849 0.350
-13.196 -14.082 0.804
-12.669 -12.608 -0.206
-13.316 -14.195 0.809
-15.343 -12.383 -3.398
-15.223 -12.279 -3.187
-12.714 -12.615 -0.246
-13.156 -12.547 -0.658
-8.105 -8.010 -0.237
-15.415 -12.287 -3.371
-13.119 -12.547 -0.620
-12.368 -12.332 -0.092
-14.043 -13.564 -0.500
-12.842 -13.431 0.559
-8.091 -7.775 -0.335
-15.334 -12.242 -3.321
-12.674 -12.608 -0.213
-8.241 -7.625 -0.660
-12.719 -12.614 -0.252
-14.085 -13.551 -0.557
-12.438 -12.854 0.344
-11.009 -11.340 -0.005