-17.790 -5.336 -12.681
-19.066 -6.189 -13.162
-17.290 -4.162 -13.199
-8.246 -7.115 -1.256
-17.271 -5.513 -12.000
-17.271 -5.513 -12.000
-8.283 -6.845 -1.483
-11.712 -5.403 -6.501
-16.694 -4.197 -12.566
-16.971 -4.220 -12.820
-17.271 -5.513 -12.000
-19.388 -5.107 -14.351
-19.166 -5.130 -14.104
-12.845 -5.642 -7.251
-12.845 -5.642 -7.251
-16.468 -4.219 -12.317
-16.268 -5.841 -10.857
-17.271 -5.513 -12.000
-16.268 -5.841 -10.857
-17.271 -5.513 -12.000
-9.281 -5.543 -4.022
-17.271 -5.513 -12.000
-19.388 -5.107 -14.351
-11.577 -5.459 -6.297
-18.376 -6.273 -12.375
-17.271 -5.513 -12.000
-16.797 -4.219 -12.645
-19.213 -5.106 -14.176
-16.972 -4.219 -12.822
-18.377 -6.273 -12.375
-16.567 -4.240 -12.394
-17.271 -5.513 -12.000
-18.377 -6.273 -12.375
-8.003 -6.539 -1.693
-8.003 -6.539 -1.693
-16.693 -4.197 -12.564
-16.135 -5.867 -11.131
-8.281 -6.845 -1.481
-18.377 -6.273 -12.375
-16.970 -4.220 -12.819
-9.281 -5.543 -4.021
-7.972 -6.531 -1.442
-9.164 -6.948 -2.557
-18.377 -6.273 -12.375
-16.794 -4.220 -12.642
-9.765 -7.221 -2.559
-11.637 -5.419 -6.399
-16.268 -5.841 -10.857
-18.042 -6.375 -11.917
-18.042 -6.375 -11.917
-9.572 -5.892 -3.733
-16.136 -5.867 -11.132
-8.321 -6.116 -2.219
-16.268 -5.841 -10.857
-9.312 -6.886 -2.436
-6.436 -6.535 0.074
-6.436 -6.535 0.074
-7.987 -6.544 -1.677
-19.368 -5.109 -14.328
-16.126 -5.868 -11.122
-16.468 -4.219 -12.317
-17.271 -5.513 -12.000
-8.283 -6.845 -1.483
-7.977 -6.546 -1.665
-7.977 -6.546 -1.665
-17.271 -5.513 -12.000
-8.324 -6.115 -2.223
-9.312 -6.886 -2.436
-18.031 -6.376 -11.905
-17.271 -5.513 -12.000
-6.442 -6.534 0.067
-11.654 -5.413 -6.422
-18.044 -6.375 -11.918
-16.795 -4.220 -12.643
-16.795 -4.220 -12.643
-9.351 -5.347 -4.307
-16.795 -4.220 -12.643
-19.211 -5.106 -14.174
-9.312 -6.886 -2.436
-18.377 -6.273 -12.375
-9.834 -7.212 -2.637
-16.774 -4.223 -12.618
-19.162 -5.130 -14.100
-8.280 -6.846 -1.480
-18.377 -6.273 -12.375
-18.377 -6.273 -12.375
-18.041 -6.375 -11.915
-8.002 -6.540 -1.692
-11.651 -5.414 -6.418
-18.041 -6.375 -11.915
-9.312 -6.886 -2.436
-9.762 -7.222 -2.556
-17.271 -5.513 -12.000
-19.213 -5.106 -14.176
-16.468 -4.219 -12.317
-9.350 -5.348 -4.305
-9.281 -5.543 -4.021
-8.073 -7.494 -0.671
-8.073 -7.494 -0.671
-18.377 -6.273 -12.375
-16.468 -4.219 -12.317
-7.977 -6.530 -1.447
-16.135 -5.867 -11.131
-10.085 -5.479 -4.643
-15.924 -5.934 -10.383
-19.209 -5.106 -14.171
-16.135 -5.867 -11.131
-7.974 -6.633 -1.549
-16.135 -5.867 -11.131
-9.571 -5.893 -3.732
-7.450 -6.882 -0.570
-16.135 -5.867 -11.131
-16.691 -4.198 -12.561
-8.611 -6.114 -2.499
-16.787 -4.221 -12.633
-18.376 -6.273 -12.375
-11.711 -5.404 -6.499
-8.426 -6.799 -1.636
-19.209 -5.106 -14.171
-18.376 -6.273 -12.375
-8.772 -7.397 -1.443
-18.376 -6.273 -12.375
-18.376 -6.273 -12.375
-8.997 -7.700 -1.313
-7.051 -7.737 0.663
-7.999 -6.542 -1.687
-18.376 -6.273 -12.375
-7.654 -7.551 -0.104
-18.376 -6.273 -12.375
-18.551 -6.263 -12.565
-8.611 -6.114 -2.499
-18.376 -6.273 -12.375
-7.977 -6.530 -1.447
-19.209 -5.106 -14.172
-16.134 -5.867 -11.130
-18.376 -6.273 -12.375
-8.894 -7.301 -1.600
-19.191 -5.108 -14.151
-8.255 -6.836 -1.427
-16.267 -5.841 -10.857
-16.794 -4.220 -12.641
-18.376 -6.273 -12.375
-8.447 -6.786 -1.671
-18.041 -6.375 -11.915
-9.490 -5.908 -3.634
-16.134 -5.867 -11.130
-18.041 -6.375 -11.915
-18.987 -5.129 -13.925
-16.134 -5.867 -11.130
-10.468 -7.396 -3.222
-11.646 -5.416 -6.411
-16.787 -4.221 -12.633
-16.468 -4.219 -12.317
-7.448 -6.884 -0.566
-8.611 -6.114 -2.499
-7.295 -6.918 -0.383
-16.759 -4.226 -12.601
-18.041 -6.375 -11.915
-15.923 -5.934 -10.382
-8.321 -6.116 -2.218
-8.281 -6.845 -1.481
-16.468 -4.219 -12.316
-19.209 -5.106 -14.171
-8.611 -6.114 -2.499
-16.134 -5.867 -11.131
-16.134 -5.867 -11.131
-10.085 -5.479 -4.643
-7.413 -7.760 0.319
-18.041 -6.375 -11.915
-8.215 -7.413 -0.816
-18.041 -6.375 -11.915
-8.855 -7.308 -1.553
-6.966 -6.954 -0.034
-7.654 -7.551 -0.105
-7.654 -7.551 -0.105
-8.962 -7.309 -1.659
-16.135 -5.867 -11.131
-16.069 -5.821 -10.703
-18.301 -6.280 -12.293
-17.974 -6.382 -11.843
-7.970 -6.586 -1.510
-7.949 -6.534 -1.416
-8.856 -7.305 -1.557
-8.749 -7.400 -1.417
-18.301 -6.280 -12.293
-18.475 -6.270 -12.483
-7.284 -6.914 -0.375
-8.979 -7.706 -1.289
-8.442 -6.789 -1.662
-9.483 -5.911 -3.624
-8.426 -6.838 -1.596
-9.270 -5.561 -3.992
-9.337 -5.372 -4.268
-16.533 -4.245 -12.354
-9.341 -5.366 -4.278
-16.759 -4.226 -12.601
-7.275 -6.917 -0.364
-15.855 -5.940 -10.309
-19.172 -5.111 -14.129
-18.175 -6.297 -12.148
-8.445 -6.788 -1.665
-9.459 -6.621 -2.846
-17.974 -6.382 -11.843
-8.444 -6.788 -1.665
-11.623 -5.421 -6.383
-19.174 -5.111 -14.131
-8.563 -6.099 -2.466
-7.544 -7.558 0.013
-16.534 -4.245 -12.355
-9.382 -5.935 -3.496
-8.334 -5.875 -2.462
-9.744 -7.225 -2.534
-9.744 -7.225 -2.534
-7.449 -6.879 -0.573
-19.139 -5.116 -14.090
-19.139 -5.116 -14.090
-16.079 -5.874 -11.071
-8.947 -7.311 -1.643
-19.157 -5.113 -14.112
-17.974 -6.382 -11.843
-16.191 -5.847 -10.775
-8.452 -6.780 -1.681
-16.534 -4.245 -12.356
-18.301 -6.280 -12.293
-10.169 -5.456 -4.751
-18.952 -5.133 -13.885
-9.744 -7.225 -2.534
-9.287 -6.892 -2.404
-7.286 -6.915 -0.377
-7.076 -6.902 -0.179
-9.423 -5.922 -3.552
-7.411 -7.761 0.322
-8.854 -7.305 -1.555
-7.449 -6.879 -0.572
-8.995 -7.636 -1.486
-16.432 -4.224 -12.275
-7.439 -6.886 -0.556
-17.818 -6.396 -11.674
-6.496 -6.825 0.329
-8.582 -6.131 -2.453
-9.069 -7.647 -1.437
-7.185 -7.446 0.257
-8.420 -6.802 -1.626
-16.045 -5.876 -11.046
-11.088 -6.581 -4.768
-16.045 -5.876 -11.046
-19.152 -5.110 -14.110
-9.741 -7.229 -2.527
-9.015 -7.634 -1.508
-9.312 -6.886 -2.435
-9.068 -7.648 -1.435
-9.068 -7.648 -1.435
-18.376 -6.273 -12.375
-6.494 -6.824 0.330
-18.040 -6.375 -11.914
-15.923 -5.934 -10.381
-7.176 -7.453 0.274
-16.134 -5.867 -11.130
-11.650 -5.414 -6.416
-8.856 -7.378 -1.501
-9.558 -5.894 -3.716
-9.775 -5.560 -4.249
-11.647 -5.415 -6.412
-15.923 -5.934 -10.382
-19.208 -5.106 -14.170
-16.046 -5.883 -11.002
-6.443 -6.534 0.066
-8.447 -6.786 -1.670
-8.210 -7.415 -0.809
-8.210 -7.415 -0.809
-7.280 -6.871 -0.410
-8.000 -6.541 -1.687
-8.444 -6.785 -1.668
-18.377 -6.273 -12.375
-8.003 -6.539 -1.693
-7.064 -7.434 0.366
-8.611 -6.114 -2.499
-8.225 -7.405 -0.835
-7.974 -6.548 -1.659
-7.409 -7.761 0.323
-7.409 -7.761 0.323
-19.188 -5.109 -14.147
-9.765 -7.221 -2.559
-7.559 -7.566 0.007
-19.179 -5.110 -14.137
-9.417 -7.327 -2.113
-9.190 -6.937 -2.587
-6.506 -6.818 0.312
-8.433 -6.793 -1.649
-7.623 -7.253 -0.371
-8.279 -7.424 -0.884
-7.049 -7.740 0.667
-6.506 -6.818 0.312
-7.577 -7.562 -0.016
-19.178 -5.111 -14.135
-9.312 -7.153 -2.177
-7.562 -7.556 -0.006
-8.696 -7.634 -1.075
-7.665 -7.545 -0.121
-7.977 -6.546 -1.665
-8.855 -7.377 -1.501
-9.873 -5.532 -4.375
-7.665 -7.545 -0.121
-7.561 -7.556 -0.005
-7.665 -7.545 -0.121
-19.181 -5.110 -14.139
-8.255 -6.835 -1.426
-9.406 -6.464 -2.954
-9.208 -6.934 -2.605
-18.987 -5.129 -13.925
-9.495 -6.880 -2.907
-7.945 -6.410 -1.637
-9.003 -6.919 -2.095
-8.852 -7.378 -1.497
-8.223 -7.404 -0.835
-9.067 -7.650 -1.431
-8.864 -7.305 -1.566
-8.224 -7.405 -0.833
-8.954 -6.916 -2.049
-16.134 -5.867 -11.130
-10.221 -5.444 -4.816
-7.291 -6.917 -0.380
-16.759 -4.226 -12.600
-7.403 -7.764 0.333
-16.134 -5.867 -11.130
-8.004 -6.540 -1.692
-15.923 -5.934 -10.381
-6.958 -7.034 0.046
-18.040 -6.375 -11.914
-19.209 -5.106 -14.171
-8.257 -6.835 -1.429
-8.949 -7.223 -1.729
-9.172 -7.633 -1.553
-7.458 -6.877 -0.584
-18.987 -5.129 -13.925
-9.719 -7.288 -2.435
-9.094 -7.643 -1.582
-7.623 -7.253 -0.371
-7.184 -7.445 0.257
-8.430 -6.793 -1.646
-9.568 -5.892 -3.729
-18.987 -5.129 -13.925
-18.987 -5.129 -13.925
-7.814 -6.988 -0.854
-8.425 -6.796 -1.638
-9.101 -7.614 -1.501
-9.693 -5.587 -4.139
-19.203 -5.107 -14.165
-8.352 -5.866 -2.489
-7.409 -7.761 0.323
-9.087 -7.630 -1.472
-9.195 -6.940 -2.587
-7.974 -6.549 -1.658
-7.974 -6.549 -1.658
-9.046 -7.629 -1.543
-7.949 -6.637 -1.523
-7.975 -6.548 -1.661
-9.895 -5.530 -4.399
-18.040 -6.375 -11.914
-9.086 -7.698 -1.404
-8.954 -6.916 -2.049
-13.597 -9.952 -3.937
-9.933 -5.524 -4.443
-9.134 -6.957 -2.524
-9.134 -6.957 -2.524
-7.990 -6.542 -1.680
-6.437 -6.535 0.073
-8.675 -7.651 -1.037
-9.066 -7.650 -1.431
-9.431 -5.919 -3.563
-7.410 -7.761 0.322
-8.439 -6.790 -1.658
-7.084 -6.905 -0.184
-8.438 -6.789 -1.658
-7.560 -7.557 -0.003
-7.987 -6.543 -1.677
-8.412 -6.872 -1.547
-6.678 -7.114 0.397
-8.439 -6.790 -1.658
-19.201 -5.107 -14.162
-7.266 -6.922 -0.350
-9.184 -7.336 -1.851
-16.771 -4.224 -12.614
-8.903 -7.298 -1.612
-18.041 -6.375 -11.915
-9.086 -7.698 -1.404
-10.170 -5.456 -4.752
-8.215 -7.413 -0.816
-7.551 -7.562 0.011
-9.488 -5.909 -3.632
-9.488 -5.909 -3.632
-8.215 -7.413 -0.816
-7.999 -6.542 -1.686
-8.252 -7.123 -1.252
-8.897 -7.640 -1.382
-8.950 -7.654 -1.425
-9.086 -7.698 -1.404
-19.198 -5.108 -14.158
-11.643 -5.417 -6.406
-8.974 -7.305 -1.675
-8.905 -7.298 -1.615
-8.868 -7.618 -1.264
-7.188 -7.412 0.086
-9.476 -5.910 -3.617
-9.906 -5.525 -4.417
-6.589 -7.089 0.499
-14.275 -10.569 -4.153
-7.459 -6.878 -0.584
-16.359 -5.826 -11.516
-6.564 -7.102 0.479
-7.089 -6.340 -0.833
-7.413 -7.760 0.319
-6.141 -6.567 0.427
-11.643 -5.417 -6.406
-7.410 -7.761 0.323
-8.258 -7.123 -1.257
-9.080 -7.639 -1.455
-16.134 -5.867 -11.130
-8.004 -6.540 -1.692
-7.546 -7.564 0.018
-16.268 -5.841 -10.857
-6.446 -6.534 0.063
-9.497 -5.908 -3.642
-18.042 -6.375 -11.917
-7.051 -7.739 0.665
-19.210 -5.106 -14.173
-15.925 -5.934 -10.383
-9.497 -5.908 -3.642
-7.121 -6.331 -0.876
-18.042 -6.375 -11.917
-8.002 -6.540 -1.692
-7.292 -6.917 -0.381
-7.183 -7.448 0.261
-5.988 -6.598 0.612
-8.163 -7.322 -0.863
-6.838 -7.550 0.685
-18.376 -6.273 -12.375
-7.453 -6.881 -0.574
-6.403 -6.822 0.419
-9.083 -7.700 -1.399
-8.997 -7.700 -1.313
-10.176 -5.455 -4.760
-6.067 -6.599 0.533
-7.573 -7.353 -0.235
-10.047 -5.488 -4.594
-10.131 -5.463 -4.706
-6.069 -6.598 0.530
-9.489 -5.908 -3.633
-16.684 -4.199 -12.554
-8.859 -5.859 -3.045
-8.902 -7.299 -1.611
-8.772 -7.374 -1.418
-6.174 -6.591 0.417
-6.639 -7.123 0.441
-18.192 -6.368 -12.079
-7.051 -7.738 0.663
-7.453 -6.881 -0.574
-16.134 -5.867 -11.131
-8.234 -7.112 -1.247
-6.563 -7.102 0.480
-9.540 -5.060 -4.656
-5.990 -6.597 0.608
-7.546 -7.564 0.018
-6.007 -6.560 0.553
-15.924 -5.934 -10.382
-9.000 -7.746 -1.271
-8.246 -7.122 -1.246
-7.121 -6.331 -0.875
-10.172 -5.461 -4.748
-16.789 -4.221 -12.635
-7.973 -6.530 -1.443
-8.436 -6.791 -1.654
-6.146 -6.563 0.418
-9.076 -7.641 -1.450
-18.927 -5.133 -13.860
-6.054 -6.623 0.570
-8.743 -7.405 -1.406
-9.066 -7.645 -1.435
-8.419 -6.802 -1.625
-7.049 -7.742 0.670
-8.419 -6.802 -1.625
-8.773 -7.376 -1.418
-7.409 -7.761 0.324
-9.072 -7.644 -1.443
-9.276 -5.137 -4.312
-8.903 -7.299 -1.612
-7.066 -7.433 0.363
-6.008 -6.560 0.553
-9.798 -5.551 -4.281
-7.294 -6.918 -0.382
-6.434 -6.534 0.076
-7.086 -6.840 -0.247
-5.982 -6.599 0.617
-6.141 -6.566 0.426
-5.892 -6.269 0.369
-7.967 -6.555 -1.646
-10.745 -7.309 -3.561
-8.259 -7.123 -1.257
-8.258 -7.435 -0.852
-9.774 -5.567 -4.241
-6.013 -6.557 0.545
-9.185 -6.944 -2.578
-7.994 -6.409 -1.700
-7.955 -6.606 -1.565
-6.430 -6.535 0.081
-10.231 -9.638 -0.709
-9.240 -5.157 -4.253
-19.199 -5.107 -14.160
-7.904 -6.514 -1.390
-6.017 -6.554 0.538
-10.880 -6.617 -4.518
-8.679 -7.644 -1.047
-8.435 -6.792 -1.652
-8.225 -7.407 -0.833
-16.127 -5.868 -11.123
-8.667 -7.388 -1.303
-8.957 -7.311 -1.653
-8.001 -6.542 -1.687
-8.890 -7.303 -1.594
-15.914 -5.935 -10.373
-6.172 -6.611 0.439
-10.372 -7.408 -3.132
-8.453 -6.779 -1.683
-6.896 -6.971 0.060
-7.121 -6.332 -0.874
-6.102 -6.375 0.264
-7.414 -7.759 0.317
-8.011 -6.537 -1.700
-8.011 -6.537 -1.700
-6.766 -7.023 0.227
-6.688 -7.112 0.386
-8.452 -6.777 -1.684
-8.883 -7.306 -1.585
-7.638 -7.556 -0.083
-6.207 -6.576 0.370
-6.564 -7.102 0.478
-8.453 -6.779 -1.683
-8.989 -7.087 -2.348
-6.059 -6.603 0.544
-8.913 -7.747 -1.183
-7.176 -7.453 0.274
-8.010 -6.538 -1.698
-7.534 -7.568 0.033
-8.451 -6.779 -1.681
-7.274 -6.874 -0.401
-8.246 -7.122 -1.246
-8.913 -7.747 -1.184
-7.294 -7.383 0.089
-8.913 -7.747 -1.184
-8.011 -6.538 -1.699
-8.245 -7.122 -1.246
-5.985 -6.601 0.617
-8.882 -7.308 -1.581
-7.445 -6.885 -0.563
-10.221 -5.453 -4.806
-5.986 -6.601 0.616
-11.185 -6.563 -4.884
-8.084 -7.134 -1.070
-6.917 -6.877 -0.045
-7.176 -7.453 0.274
-8.999 -7.747 -1.269
-5.882 -6.274 0.384
-8.391 -7.505 -1.053
-7.638 -7.556 -0.083
-19.176 -5.111 -14.133
-8.260 -7.125 -1.256
-6.445 -7.193 0.703
-9.485 -6.882 -2.894
-7.428 -6.901 -0.530
-5.304 -6.331 1.026
-8.254 -6.836 -1.425
-16.127 -5.868 -11.123
-5.378 -6.193 0.817
-5.992 -6.597 0.605
-10.106 -9.664 -0.482
-8.006 -6.538 -1.696
-7.546 -7.564 0.017
-8.890 -7.304 -1.594
-8.890 -7.304 -1.594
-6.410 -6.822 0.411
-9.490 -5.908 -3.634
-10.086 -5.479 -4.643
-8.447 -6.785 -1.671
-5.378 -6.193 0.817
-7.546 -7.564 0.017
-9.489 -5.909 -3.633
-8.446 -6.785 -1.670
-6.490 -6.827 0.336
-7.451 -6.882 -0.571
-9.489 -5.909 -3.632
-8.446 -6.786 -1.670
-8.958 -7.310 -1.654
-6.592 -7.145 0.551
-6.142 -6.566 0.425
-10.217 -5.444 -4.812
-8.973 -7.714 -1.276
-8.289 -7.419 -0.883
-8.973 -7.714 -1.275
-6.685 -7.113 0.390
-8.249 -7.122 -1.249
-6.956 -7.831 0.870
-5.995 -6.595 0.601
-6.143 -6.565 0.423
-8.253 -7.122 -1.253
-7.989 -6.594 -1.609
-8.759 -7.699 -1.077
-6.643 -7.839 1.198
-8.904 -7.033 -2.272
-5.990 -6.599 0.609
-8.002 -6.541 -1.689
-9.541 -5.060 -4.656
-9.490 -5.908 -3.634
-8.958 -7.310 -1.654
-8.003 -7.417 -0.601
-6.902 -6.969 0.052
-5.985 -6.599 0.614
-9.490 -5.908 -3.633
-6.845 -6.484 -0.368
-9.077 -7.054 -2.427
-8.005 -6.371 -1.749
-10.217 -5.445 -4.812
-8.003 -6.540 -1.691
-8.251 -7.122 -1.251
-7.181 -7.450 0.265
-8.249 -7.122 -1.248
-13.518 -9.978 -3.835
-8.251 -7.122 -1.250
-8.853 -7.642 -1.334
-7.413 -7.760 0.319
-10.472 -7.395 -3.226
-7.546 -7.564 0.017
-5.886 -6.272 0.378
-7.261 -6.858 -0.406
-8.250 -7.122 -1.250
-8.250 -7.122 -1.250
-9.572 -5.892 -3.733
-7.649 -7.552 -0.098
-6.923 -6.875 -0.053
-7.261 -6.858 -0.406
-9.548 -5.054 -4.671
-5.983 -6.600 0.618
-6.121 -6.472 0.319
-8.250 -7.122 -1.250
-7.181 -7.450 0.265
-9.059 -7.714 -1.361
-10.470 -7.382 -3.239
-8.581 -7.714 -0.879
-8.906 -7.656 -1.378
-8.089 -7.134 -1.073
-8.250 -7.122 -1.250
-9.078 -7.056 -2.426
-5.990 -6.598 0.609
-6.685 -7.113 0.390
-8.446 -6.786 -1.669
-6.685 -7.113 0.390
-5.886 -6.272 0.378
-9.481 -5.087 -4.566
-9.481 -5.087 -4.566
-8.332 -7.702 -0.643
-9.544 -5.059 -4.660
-10.220 -5.444 -4.815
-8.783 -7.302 -1.488
-13.831 -9.985 -3.874
-10.137 -5.470 -4.705
-5.822 -6.315 0.468
-7.280 -6.871 -0.410
-8.886 -7.036 -2.257
-8.150 -7.333 -0.831
-6.563 -7.103 0.481
-5.767 -6.270 0.495
-5.887 -6.272 0.377
-6.563 -7.103 0.480
-8.251 -7.122 -1.250
-7.451 -6.882 -0.571
-7.051 -7.738 0.663
-6.562 -7.103 0.482
-8.001 -6.540 -1.689
-8.250 -7.122 -1.249
-10.217 -5.445 -4.812
-8.974 -7.714 -1.276
-9.059 -7.714 -1.362
-8.004 -6.372 -1.747
-7.062 -7.435 0.369
-5.885 -6.273 0.380
-8.239 -7.123 -1.236
-7.050 -7.741 0.667
-6.954 -7.512 0.558
-7.087 -6.850 -0.238
-8.885 -7.037 -2.255
-5.988 -6.298 0.231
-9.060 -7.714 -1.362
-6.562 -7.103 0.482
-10.215 -5.445 -4.809
-8.591 -7.718 -0.886
-8.444 -6.786 -1.667
-7.146 -7.852 0.683
-10.105 -9.664 -0.481
-8.446 -6.785 -1.670
-8.089 -7.135 -1.072
-8.447 -6.785 -1.671
-8.089 -7.135 -1.072
-8.089 -7.135 -1.072
-8.782 -7.301 -1.488
-6.223 -6.830 0.608
-10.214 -5.444 -4.810
-15.931 -5.934 -10.389
-7.535 -7.227 -0.311
-9.872 -9.755 -0.173
-17.625 -9.412 -8.322
-10.841 -10.914 0.016
-10.841 -10.914 0.016
-14.342 -9.875 -4.502
-11.810 -11.157 -0.709
-9.960 -10.166 0.162
-9.960 -10.166 0.163
-22.544 -8.655 -14.124
-14.074 -9.908 -4.199
-10.579 -10.959 0.340
-22.539 -8.655 -14.118
-14.074 -9.908 -4.199
-9.879 -10.196 0.268
-23.956 -9.789 -14.375
-10.179 -10.222 0.039
-22.408 -9.446 -13.720
-22.688 -8.562 -14.366
-10.147 -10.233 0.082
-22.450 -9.433 -13.782
-11.743 -11.747 -0.056
-21.958 -8.152 -14.647
-21.958 -8.152 -14.647
-14.479 -9.799 -5.009
-9.901 -10.181 0.231
-14.097 -9.899 -4.233
-9.901 -10.181 0.231
-11.789 -11.750 -0.099
-10.461 -10.300 -0.181
-9.900 -10.181 0.232
-22.682 -8.562 -14.359
-10.146 -10.233 0.083
-14.013 -9.915 -4.133
-23.035 -8.430 -14.896
-13.806 -10.617 -3.670
-22.690 -8.561 -14.369
-24.291 -9.778 -14.724
-14.221 -10.970 -3.326
-9.919 -10.171 0.204
-11.853 -11.744 -0.169
-12.422 -11.117 -1.320
-14.221 -10.970 -3.326
-13.935 -10.610 -3.794
-10.469 -10.299 -0.189
-14.155 -9.888 -4.303
-14.537 -9.793 -5.077
-13.933 -10.610 -3.792
-23.602 -8.427 -15.467
-22.683 -8.562 -14.361
-11.717 -11.748 -0.030
-11.010 -10.955 -0.118
-10.518 -10.915 0.392
-10.725 -10.667 -0.062
-13.694 -10.622 -3.572
-10.465 -10.403 -0.077
-14.394 -9.809 -4.907
-22.447 -9.434 -13.779
-14.006 -9.928 -4.112
-9.665 -9.394 -0.283
-14.026 -9.912 -4.148
-11.628 -11.672 -0.120
-14.406 -9.807 -4.923
-13.869 -9.932 -3.971
-21.781 -8.667 -13.354
-11.724 -11.748 -0.036
-11.736 -11.745 -0.050
-13.950 -10.537 -3.470
-11.736 -11.745 -0.050
-10.892 -10.683 -0.213
-18.777 -10.949 -7.921
-21.958 -8.152 -14.648
-14.479 -9.799 -5.009
-13.764 -10.626 -3.619
-11.789 -11.750 -0.099
-10.550 -10.339 -0.231
-11.801 -11.747 -0.113
-13.250 -10.793 -2.487
-13.850 -10.625 -3.697
-22.682 -8.562 -14.360
-23.479 -10.050 -13.856
-12.581 -8.182 -4.547
-10.838 -10.943 0.050
-22.458 -9.430 -13.792
-23.500 -10.047 -13.881
-13.797 -9.947 -3.882
-23.542 -9.846 -13.907
-11.076 -10.923 -0.214
-13.859 -10.958 -2.931
-10.331 -10.867 0.514
-11.843 -11.747 -0.156
-13.859 -10.958 -2.931
-13.898 -10.615 -3.753
-14.379 -9.798 -4.914
-11.842 -11.747 -0.155
-10.079 -10.343 0.252
-14.029 -9.890 -4.174
-13.896 -10.616 -3.751
-13.951 -10.605 -3.813
-13.896 -10.616 -3.751
-14.007 -9.907 -4.135
-10.200 -10.208 0.003
-14.555 -9.788 -5.097
-14.238 -10.969 -3.345
-21.963 -8.151 -14.655
-10.117 -10.889 0.773
-10.770 -9.771 -1.042
-10.846 -10.921 0.020
-10.752 -10.642 -0.115
-11.798 -11.748 -0.109
-13.772 -10.622 -3.632
-22.326 -8.638 -13.930
-21.961 -8.151 -14.653
-13.827 -10.612 -3.693
-13.754 -10.944 -2.833
-9.918 -10.156 0.168
-9.922 -10.170 0.196
-9.922 -10.153 0.177
-11.787 -11.750 -0.096
-11.787 -11.750 -0.096
-11.787 -11.750 -0.096
-11.026 -10.919 -0.171
-11.787 -11.750 -0.096
-11.787 -11.750 -0.096
-11.817 -11.749 -0.127
-10.544 -10.647 0.097
-11.798 -11.748 -0.109
-14.317 -9.805 -4.840
-14.056 -10.509 -3.618
-10.071 -10.346 0.263
-10.754 -10.641 -0.118
-10.656 -9.656 -1.188
-13.945 -9.918 -4.061
-13.696 -11.100 -3.182
-22.324 -8.638 -13.927
-10.738 -10.648 -0.095
-10.207 -10.893 0.664
-13.531 -10.690 -2.881
-9.674 -9.395 -0.292
-23.500 -10.047 -13.881
-21.965 -8.150 -14.657
-11.793 -11.751 -0.102
-10.473 -10.851 0.374
-11.787 -11.750 -0.096
-13.773 -10.621 -3.633
-10.544 -10.647 0.097
-10.245 -10.883 0.615
-10.026 -10.168 0.035
-11.798 -11.748 -0.109
-13.827 -10.611 -3.694
-10.544 -10.647 0.098
-13.773 -10.622 -3.633
-10.876 -10.662 -0.218
-11.798 -11.748 -0.109
-10.609 -10.327 -0.300
-9.920 -10.160 0.188
-14.491 -9.795 -5.022
-10.770 -9.771 -1.042
-11.797 -11.748 -0.108
-11.786 -11.750 -0.095
-10.638 -10.938 0.258
-10.244 -10.883 0.618
-9.919 -10.165 0.192
-10.244 -10.883 0.618
-13.967 -9.902 -4.101
-13.610 -10.029 -3.608
-13.945 -9.918 -4.061
-10.626 -9.650 -1.165
-9.912 -10.389 0.479
-10.626 -9.650 -1.165
-9.912 -10.389 0.479
-14.102 -9.898 -4.239
-9.920 -10.167 0.195
-11.470 -11.273 -0.251
-12.346 -10.982 -1.383
-11.798 -11.748 -0.109
-9.695 -9.393 -0.315
-10.151 -9.720 -0.471
-11.523 -11.296 -0.284
-10.846 -10.921 0.019
-10.274 -10.595 0.323
-11.798 -11.748 -0.109
-9.913 -10.389 0.477
-10.495 -10.359 -0.154
-10.754 -10.642 -0.117
-9.912 -10.389 0.478
-11.471 -11.272 -0.253
-10.554 -10.303 -0.270
-13.200 -10.793 -2.438
-11.817 -11.749 -0.127
-11.786 -11.750 -0.096
-10.639 -10.935 0.255
-13.967 -9.902 -4.101
-10.770 -9.771 -1.042
-10.302 -10.882 0.557
-13.827 -10.612 -3.694
-11.798 -11.748 -0.109
-10.524 -10.840 0.311
-24.111 -9.825 -14.496
-10.199 -10.208 0.005
-11.033 -10.912 -0.186
-10.278 -10.870 0.571
-10.282 -10.583 0.303
-10.740 -9.759 -1.024
-13.948 -9.905 -4.342
-11.626 -11.667 -0.146
-10.740 -9.759 -1.023
-11.850 -11.745 -0.164
-13.955 -10.613 -3.807
-13.890 -10.616 -3.745
-11.851 -11.745 -0.165
-13.668 -10.018 -3.677
-14.114 -10.987 -3.210
-13.891 -10.616 -3.746
-13.977 -10.972 -3.088
-10.525 -10.812 0.285
-10.041 -10.211 0.165
-9.712 -9.391 -0.334
-9.927 -10.376 0.451
-10.555 -10.643 0.083
-10.763 -10.638 -0.130
-13.667 -10.019 -3.675
-10.270 -10.870 0.578
-10.270 -10.870 0.578
-10.270 -10.870 0.578
-13.667 -10.019 -3.675
-10.039 -10.214 0.170
-11.839 -11.747 -0.151
-13.956 -10.613 -3.808
-10.270 -10.870 0.577
-9.925 -10.377 0.454
-10.602 -10.814 0.211
-11.850 -11.745 -0.164
-9.129 -9.639 0.507
-11.543 -11.224 -0.371
-9.925 -10.377 0.454
-13.921 -10.625 -3.759
-10.291 -10.870 0.556
-13.495 -11.037 -2.507
-11.850 -11.745 -0.164
-13.668 -10.018 -3.677
-12.612 -10.780 -1.868
-14.204 -10.570 -4.089
-9.958 -10.346 0.389
-10.382 -10.819 0.414
-11.968 -11.701 -0.328
-10.799 -10.645 -0.158
-14.303 -10.560 -4.199
-13.865 -10.967 -2.969
-14.303 -10.560 -4.199
-9.924 -10.165 0.200
-10.613 -10.744 0.129
-11.700 -11.093 -0.654
-10.059 -10.210 0.145
-9.748 -9.390 -0.371
-13.878 -10.964 -2.985
-14.357 -10.550 -4.261
-14.128 -10.776 -3.396
-10.378 -10.681 0.294
-10.337 -10.821 0.462
-10.344 -10.823 0.457
-14.303 -10.560 -4.199
-14.336 -10.569 -4.217
-14.149 -9.723 -4.632
-14.369 -10.557 -4.263
-13.865 -10.967 -2.969
-13.865 -10.967 -2.969
-14.430 -10.872 -3.653
-10.337 -10.821 0.461
-13.878 -10.964 -2.986
-13.650 -9.943 -3.997
-9.963 -10.345 0.384
-14.038 -9.715 -4.533
-10.613 -10.744 0.129
-14.242 -10.563 -4.137
-10.337 -10.821 0.461
-10.337 -10.821 0.461
-14.420 -10.882 -3.631
-9.922 -10.578 0.646
-9.684 -10.470 0.782
-9.923 -10.163 0.198
-10.058 -10.210 0.146
-14.368 -10.557 -4.262
-14.337 -10.569 -4.217
-14.015 -10.778 -3.282
-14.304 -10.560 -4.200
-10.360 -10.821 0.438
-10.581 -10.647 0.062
-11.987 -11.699 -0.349
-10.378 -10.681 0.294
-14.369 -10.557 -4.263
-14.038 -9.715 -4.534
-10.344 -10.822 0.457
-14.126 -9.718 -4.616
-14.038 -9.715 -4.534
-10.344 -10.822 0.457
-14.369 -10.557 -4.263
-10.613 -10.744 0.129
-11.979 -11.699 -0.341
-14.156 -9.875 -4.589
-10.189 -9.838 -0.361
-13.862 -10.969 -2.964
-10.378 -10.681 0.294
-9.938 -10.449 0.508
-13.875 -10.966 -2.980
-11.978 -11.699 -0.340
-14.059 -9.720 -4.547
-10.506 -10.637 0.128
-13.529 -9.947 -3.879
-14.094 -10.965 -3.180
-14.062 -9.719 -4.551
-10.799 -10.645 -0.158
-11.733 -11.085 -0.693
-11.987 -11.699 -0.348
-13.983 -10.969 -3.080
-14.062 -9.719 -4.550
-14.419 -10.882 -3.631
-14.419 -10.882 -3.631
-14.419 -10.882 -3.631
-14.081 -10.779 -3.346
-10.582 -10.646 0.060
-10.554 -10.920 0.330
-14.358 -10.550 -4.261
-9.759 -9.388 -0.385
-10.848 -10.908 0.002
-12.609 -10.846 -1.795
-10.628 -10.920 0.252
-10.613 -10.744 0.129
-10.106 -10.207 0.096
-10.106 -10.207 0.096
-14.303 -10.560 -4.199
-14.306 -10.549 -4.213
-10.613 -10.744 0.129
-10.535 -10.741 0.204
-9.748 -9.390 -0.371
-10.390 -10.820 0.409
-14.419 -10.882 -3.631
-10.613 -10.744 0.129
-10.337 -10.821 0.461
-9.924 -10.166 0.200
-9.823 -9.386 -0.451
-13.983 -10.969 -3.080
-13.865 -10.967 -2.969
-13.865 -10.967 -2.969
-12.029 -11.698 -0.391
-12.029 -11.698 -0.391
-13.983 -10.969 -3.081
-10.114 -9.680 -0.466
-10.335 -10.822 0.463
-10.056 -10.214 0.152
-14.366 -10.558 -4.259
-11.978 -11.699 -0.340
-13.529 -9.946 -3.879
-14.302 -10.561 -4.197
-9.823 -9.385 -0.451
-9.823 -9.385 -0.451
-14.060 -9.720 -4.548
-12.017 -11.701 -0.377
-14.367 -10.558 -4.261
-14.356 -10.551 -4.259
-14.302 -10.561 -4.197
-10.336 -10.822 0.463
-14.540 -10.981 -4.368
-11.975 -11.701 -0.334
-12.615 -10.782 -1.870
-10.343 -10.823 0.458
-11.602 -11.299 -0.372
-14.060 -9.720 -4.548
-14.427 -10.873 -3.649
-14.302 -10.561 -4.197
-13.862 -10.969 -2.964
-11.699 -11.092 -0.654
-14.336 -10.570 -4.216
-11.967 -11.701 -0.328
-14.367 -10.558 -4.261
-14.356 -10.551 -4.259
-14.427 -10.873 -3.649
-10.189 -9.838 -0.361
-10.067 -10.241 0.155
-14.304 -10.550 -4.211
-11.967 -11.701 -0.328
-10.336 -10.822 0.463
-10.378 -10.681 0.294
-9.969 -10.586 0.608
-9.823 -9.385 -0.451
-10.612 -10.744 0.130
-11.967 -11.701 -0.327
-14.302 -10.561 -4.197
-9.823 -9.385 -0.451
-14.367 -10.558 -4.261
-14.302 -10.561 -4.197
-14.416 -10.883 -3.627
-13.875 -10.966 -2.981
-11.715 -11.627 -0.320
-13.862 -10.969 -2.964
-14.367 -10.558 -4.261
-10.382 -10.819 0.415
-9.968 -10.338 0.371
-14.485 -10.986 -4.312
-9.748 -9.389 -0.372
-14.485 -10.986 -4.312
-9.823 -9.385 -0.452
-11.602 -11.299 -0.372
-14.559 -10.988 -4.385
-14.062 -9.719 -4.551
-14.062 -9.719 -4.551
-14.369 -10.557 -4.263
-14.430 -10.872 -3.654
-14.304 -10.560 -4.199
-14.358 -10.550 -4.261
-9.924 -10.166 0.200
-9.812 -9.386 -0.439
-11.705 -11.623 -0.328
-10.230 -10.857 0.627
-10.378 -10.681 0.294
-11.733 -11.085 -0.692
-10.193 -9.837 -0.365
-14.369 -10.557 -4.263
-14.039 -9.715 -4.534
-14.369 -10.557 -4.263
-14.430 -10.872 -3.654
-14.369 -10.557 -4.263
-10.613 -10.744 0.129
-12.029 -11.698 -0.391
-14.559 -10.988 -4.385
-12.018 -11.700 -0.378
-14.420 -10.882 -3.631
-14.369 -10.557 -4.263
-12.029 -11.698 -0.391
-10.613 -10.744 0.129
-14.369 -10.557 -4.263
-11.979 -11.699 -0.342
-11.979 -11.699 -0.341
-11.975 -11.701 -0.335
-9.823 -9.385 -0.452
-11.710 -11.101 -0.653
-12.018 -11.700 -0.378
-9.823 -9.385 -0.452
-13.878 -10.964 -2.986
-10.613 -10.744 0.129
-10.378 -10.681 0.294
-11.710 -11.101 -0.653
-10.390 -10.820 0.409
-11.541 -11.293 -0.320
-10.378 -10.681 0.294
-9.823 -9.385 -0.452
-10.522 -10.632 0.107
-10.613 -10.744 0.129
-14.390 -10.560 -4.277
-10.337 -10.821 0.461
-12.018 -11.700 -0.378
-14.430 -10.872 -3.653
-14.542 -10.981 -4.371
-14.369 -10.557 -4.263
-14.369 -10.557 -4.263
-14.401 -10.566 -4.280
-10.383 -10.819 0.414
-10.390 -10.820 0.409
-14.369 -10.557 -4.263
-10.109 -9.839 -0.280
-14.369 -10.557 -4.263
-12.578 -10.887 -1.721
-10.378 -10.681 0.294
-10.613 -10.744 0.129
-12.018 -11.700 -0.378
-11.705 -11.623 -0.328
-9.811 -9.386 -0.439
-11.602 -11.299 -0.372
-14.369 -10.557 -4.263
-12.745 -8.984 -3.953
-14.369 -10.557 -4.263
-11.979 -11.699 -0.341
-12.029 -11.698 -0.391
-14.369 -10.557 -4.263
-13.878 -10.964 -2.986
-13.430 -9.960 -3.754
-10.190 -9.838 -0.362
-12.020 -11.700 -0.380
-14.155 -9.722 -4.640
-14.429 -10.871 -3.652
-11.604 -11.298 -0.374
-10.623 -10.741 0.116
-10.350 -9.519 -0.856
-10.033 -10.314 0.270
-10.123 -9.669 -0.496
-10.123 -9.669 -0.496
-10.768 -10.629 -0.143
-10.235 -9.641 -0.710
-10.116 -10.182 0.062
-9.947 -10.149 0.090
-10.123 -9.669 -0.496
-10.123 -9.669 -0.496
-10.123 -9.669 -0.496
-10.103 -10.195 0.087
-13.894 -9.969 -3.954
-9.947 -10.149 0.091
-10.032 -10.314 0.270
-14.559 -10.906 -3.747
-10.235 -9.640 -0.710
-10.123 -9.669 -0.496
-14.559 -10.906 -3.747
-9.947 -10.149 0.091
-14.559 -10.906 -3.747
-10.235 -9.640 -0.710
-10.766 -10.630 -0.141
-10.854 -10.882 -0.031
-10.115 -10.183 0.063
-13.705 -9.928 -4.066
-14.243 -9.859 -4.421
-10.832 -10.886 -0.005
-10.094 -10.190 0.092
-10.218 -9.653 -0.690
-14.203 -9.872 -4.645
-10.748 -10.632 -0.121
-9.741 -10.150 0.295
-10.748 -10.632 -0.121
-9.913 -9.780 -0.184
-10.218 -9.653 -0.690
-10.832 -10.886 -0.005
-9.756 -10.346 0.591
-13.905 -9.969 -3.965
-10.754 -9.752 -1.045
-9.673 -10.453 0.775
-10.134 -9.702 -0.473
-14.345 -10.555 -4.240
-14.201 -9.873 -4.643
-9.921 -10.157 0.123
-10.037 -10.326 0.276
-10.134 -9.702 -0.473
-10.754 -9.752 -1.045
-9.673 -10.453 0.775
-10.134 -9.702 -0.473
-9.910 -9.775 -0.189
-9.910 -9.775 -0.189
-14.345 -10.555 -4.240
-10.093 -10.191 0.093
-14.005 -10.656 -3.429
-9.982 -10.148 0.118
-9.982 -10.148 0.117
-9.913 -9.782 -0.182
-10.668 -10.912 0.204
-13.905 -9.970 -3.964
-10.134 -9.702 -0.474
-14.346 -10.554 -4.241
-13.905 -9.970 -3.964
-10.093 -10.190 0.093
-14.347 -10.554 -4.243
-9.665 -10.454 0.784
-13.905 -9.970 -3.964
-10.221 -10.854 0.620
-14.346 -10.554 -4.241
-9.935 -10.156 0.176
-10.133 -9.702 -0.473
-14.344 -10.555 -4.239
-9.754 -10.347 0.595
-13.726 -9.943 -4.082
-9.735 -10.458 0.718
-10.218 -9.654 -0.689
-13.719 -9.939 -4.078
-14.347 -10.554 -4.242
-10.541 -10.634 0.089
-14.003 -10.963 -3.103
-13.719 -9.939 -4.078
-10.832 -10.886 -0.004
-10.542 -10.634 0.088
-9.977 -10.191 0.210
-10.668 -10.913 0.204
-11.757 -11.693 -0.133
-9.965 -10.153 0.145
-14.201 -9.874 -4.642
-9.910 -9.776 -0.189
-13.999 -10.965 -3.097
-9.958 -10.191 0.229
-9.754 -10.347 0.595
-10.037 -10.326 0.276
-9.750 -10.500 0.742
-10.133 -9.702 -0.473
-11.757 -11.694 -0.132
-11.757 -11.694 -0.132
-10.218 -9.653 -0.689
-9.935 -10.154 0.174
-9.976 -10.192 0.211
-13.904 -9.970 -3.963
-10.218 -9.653 -0.689
-9.755 -10.346 0.592
-11.974 -11.700 -0.335
-14.201 -9.874 -4.643
-10.538 -10.344 -0.211
-13.905 -9.970 -3.965
-10.134 -9.702 -0.474
-10.134 -9.702 -0.474
-9.910 -9.775 -0.189
-11.973 -11.700 -0.334
-9.932 -10.198 0.261
-13.999 -10.965 -3.098
-14.344 -10.555 -4.239
-9.674 -10.454 0.775
-14.344 -10.555 -4.239
-14.201 -9.874 -4.643
-9.911 -9.776 -0.189
-11.973 -11.700 -0.334
-10.831 -10.887 -0.003
-9.913 -9.780 -0.183
-9.739 -10.151 0.298
-10.541 -10.634 0.089
-11.758 -11.694 -0.133
-10.599 -10.912 0.276
-9.913 -9.780 -0.184
-9.977 -10.191 0.210
-9.977 -10.191 0.210
-9.913 -9.780 -0.183
-14.347 -10.554 -4.243
-11.974 -11.700 -0.335
-10.218 -9.653 -0.689
-14.345 -10.554 -4.240
-10.541 -10.634 0.090
-9.755 -10.346 0.592
-12.024 -11.699 -0.385
-9.562 -9.840 0.227
-9.738 -10.152 0.300
-14.346 -10.554 -4.241
-14.002 -10.964 -3.102
-9.913 -9.781 -0.183
-9.752 -10.500 0.740
-11.975 -11.700 -0.336
-14.002 -10.964 -3.102
-11.758 -11.694 -0.134
-10.134 -9.702 -0.473
-9.980 -10.153 0.125
-9.702 -10.551 0.845
-10.541 -10.636 0.091
-9.674 -10.454 0.775
-13.726 -9.943 -4.082
-13.999 -10.965 -3.098
-11.974 -11.700 -0.335
-9.576 -9.845 0.219
-9.975 -10.194 0.215
-12.024 -11.699 -0.384
-11.536 -11.295 -0.314
-10.342 -10.822 0.456
-10.537 -10.344 -0.210
-9.820 -9.387 -0.447
-14.343 -10.555 -4.237
-9.974 -10.195 0.216
-9.575 -9.845 0.219
-11.536 -11.295 -0.313
-11.973 -11.700 -0.334
-11.973 -11.700 -0.334
-14.555 -10.980 -4.384
-13.728 -9.942 -4.085
-9.964 -10.154 0.148
-10.343 -10.822 0.456
-9.975 -10.194 0.214
-14.313 -10.545 -4.224
-9.751 -10.501 0.742
-11.978 -11.701 -0.338
-13.726 -9.943 -4.083
-13.726 -9.943 -4.083
-9.525 -10.547 1.020
-13.622 -9.965 -3.943
-10.134 -9.702 -0.474
-10.134 -9.702 -0.474
-10.134 -9.702 -0.474
-13.906 -9.970 -3.965
-14.346 -10.554 -4.242
-10.218 -9.654 -0.690
-11.394 -11.268 -0.204