-7.719 -7.884 0.160
-7.974 -8.051 0.072
-7.730 -7.885 0.150
-7.781 -8.045 0.258
-7.974 -8.051 0.072
-7.781 -8.045 0.258
-7.781 -8.045 0.258
-8.061 -7.514 -0.566
-8.224 -7.792 -0.474
-8.312 -7.575 -0.738
-8.061 -7.514 -0.566
-8.183 -7.575 -0.611
-7.974 -8.051 0.072
-15.625 -11.166 -4.475
-8.346 -7.779 -0.603
-8.635 -8.039 -0.619
-8.476 -8.047 -0.450
-8.224 -7.792 -0.474
-15.625 -11.166 -4.475
-8.476 -8.047 -0.450
-8.476 -8.047 -0.450
-7.724 -7.883 0.153
-8.918 -8.473 -0.485
-8.476 -8.047 -0.450
-8.346 -7.779 -0.603
-15.625 -11.166 -4.475
-8.224 -7.792 -0.474
-8.224 -7.792 -0.474
-8.358 -7.706 -0.653
-8.635 -8.039 -0.619
-7.730 -7.885 0.149
-6.758 -6.883 0.127
-7.523 -7.750 0.229
-7.781 -8.044 0.258
-8.476 -8.047 -0.450
-9.460 -10.412 0.882
-8.224 -7.793 -0.473
-8.446 -7.909 -0.551
-8.476 -8.047 -0.449
-7.724 -7.883 0.153
-8.446 -7.909 -0.551
-8.635 -8.039 -0.619
-7.563 -8.203 0.628
-8.918 -8.473 -0.485
-8.476 -8.047 -0.450
-8.918 -8.473 -0.485
-7.730 -7.885 0.150
-8.257 -7.675 -0.611
-7.523 -7.750 0.229
-7.781 -8.044 0.258
-8.143 -7.867 -0.434
-8.918 -8.473 -0.485
-8.224 -7.792 -0.474
-7.013 -7.268 0.252
-7.523 -7.750 0.229
-8.224 -7.792 -0.474
-8.358 -7.706 -0.653
-8.897 -8.485 -0.448
-7.009 -7.269 0.256
-7.253 -7.608 0.355
-15.625 -11.166 -4.475
-8.186 -7.808 -0.417
-8.049 -7.517 -0.552
-8.914 -8.475 -0.480
-9.528 -6.691 -2.844
-7.935 -7.514 -0.440
-8.468 -8.049 -0.440
-15.625 -11.166 -4.474
-7.777 -8.046 0.263
-8.237 -7.678 -0.585
-8.915 -8.475 -0.480
-7.777 -8.045 0.263
-8.042 -7.523 -0.535
-8.308 -7.719 -0.589
-7.777 -8.045 0.263
-7.518 -7.750 0.234
-9.483 -6.675 -2.815
-7.906 -7.421 -0.488
-15.625 -11.166 -4.474
-15.625 -11.166 -4.474
-15.625 -11.166 -4.474
-6.741 -7.200 0.460
-8.245 -7.674 -0.601
-7.009 -7.269 0.257
-7.939 -7.509 -0.453
-9.400 -10.416 0.951
-8.237 -7.678 -0.585
-8.237 -7.678 -0.585
-8.237 -7.678 -0.585
-8.246 -7.674 -0.601
-7.009 -7.269 0.256
-15.625 -11.166 -4.474
-7.559 -8.204 0.632
-7.777 -8.045 0.263
-8.138 -7.787 -0.351
-8.887 -8.484 -0.440
-7.009 -7.269 0.256
-7.914 -7.513 -0.420
-7.935 -7.514 -0.440
-7.009 -7.269 0.256
-8.186 -7.808 -0.417
-7.180 -7.031 -0.147
-7.518 -7.750 0.234
-7.559 -8.204 0.632
-7.914 -7.513 -0.420
-7.914 -7.513 -0.420
-15.625 -11.166 -4.474
-8.350 -7.710 -0.641
-8.306 -8.075 -0.307
-7.518 -7.750 0.234
-7.907 -7.421 -0.489
-7.722 -7.883 0.156
-8.246 -7.674 -0.601
-9.377 -9.500 0.054
-7.914 -7.513 -0.420
-8.237 -7.678 -0.585
-10.667 -10.597 -0.077
-8.237 -7.678 -0.585
-7.777 -8.045 0.263
-7.892 -7.425 -0.468
-7.777 -8.045 0.263
-8.782 -8.862 0.074
-8.254 -7.679 -0.601
-8.915 -8.475 -0.480
-9.528 -6.691 -2.844
-8.254 -7.679 -0.601
-7.559 -8.204 0.632
-9.563 -6.990 -2.580
-7.777 -8.045 0.263
-8.350 -7.710 -0.641
-15.625 -11.166 -4.474
-7.335 -7.438 0.105
-6.754 -6.884 0.132
-8.237 -7.678 -0.585
-8.254 -7.679 -0.601
-7.777 -8.045 0.263
-7.559 -8.204 0.632
-8.350 -7.710 -0.641
-7.335 -7.438 0.105
-7.261 -7.622 0.363
-7.009 -7.269 0.256
-7.009 -7.269 0.256
-7.935 -7.514 -0.440
-15.625 -11.166 -4.474
-8.260 -7.894 -0.382
-7.906 -7.421 -0.488
-15.625 -11.166 -4.474
-7.180 -7.031 -0.147
-8.914 -8.475 -0.480
-15.615 -11.165 -4.466
-15.625 -11.166 -4.474
-7.777 -8.045 0.263
-8.237 -7.678 -0.585
-7.986 -5.576 -2.455
-7.777 -8.045 0.263
-8.244 -7.673 -0.600
-6.753 -6.883 0.131
-8.254 -7.679 -0.601
-9.563 -6.990 -2.580
-8.186 -7.808 -0.417
-8.414 -8.059 -0.372
-9.528 -6.691 -2.844
-8.237 -7.678 -0.585
-8.109 -6.525 -1.612
-7.777 -8.045 0.263
-8.246 -7.674 -0.601
-6.754 -6.884 0.132
-8.237 -7.678 -0.585
-9.437 -10.122 0.539
-8.915 -8.475 -0.480
-7.335 -7.438 0.105
-6.754 -6.884 0.132
-7.009 -7.268 0.256
-7.777 -8.045 0.263
-7.559 -8.204 0.632
-7.009 -7.269 0.256
-8.469 -8.049 -0.440
-7.346 -7.441 0.096
-15.625 -11.166 -4.474
-15.615 -11.165 -4.466
-8.414 -8.059 -0.372
-6.739 -6.881 0.144
-8.260 -7.894 -0.382
-8.260 -7.894 -0.382
-7.939 -7.508 -0.453
-10.660 -10.615 -0.051
-9.604 -6.686 -2.925
-7.518 -7.750 0.234
-7.777 -8.045 0.263
-6.739 -6.881 0.144
-8.782 -8.862 0.074
-8.237 -7.678 -0.585
-6.896 -7.326 0.423
-9.528 -6.691 -2.844
-6.754 -6.884 0.132
-7.777 -8.045 0.263
-6.754 -6.883 0.131
-7.518 -7.750 0.234
-15.625 -11.166 -4.474
-15.615 -11.165 -4.466
-8.887 -8.484 -0.440
-9.377 -9.500 0.054
-15.615 -11.165 -4.466
-6.753 -6.883 0.131
-7.443 -7.549 0.104
-7.518 -7.750 0.234
-7.518 -7.750 0.234
-15.625 -11.166 -4.474
-9.605 -6.685 -2.926
-8.186 -7.808 -0.417
-8.092 -6.278 -1.826
-8.350 -7.710 -0.641
-7.009 -7.269 0.256
-7.986 -5.576 -2.455
-8.237 -7.678 -0.585
-15.625 -11.166 -4.474
-8.329 -7.721 -0.608
-9.604 -6.685 -2.925
-8.237 -7.678 -0.585
-8.237 -7.678 -0.585
-16.056 -10.456 -5.734
-9.528 -6.691 -2.844
-7.559 -8.204 0.632
-7.777 -8.045 0.263
-7.559 -8.204 0.632
-8.271 -6.617 -1.673
-9.631 -6.982 -2.656
-6.754 -6.884 0.132
-7.518 -7.750 0.234
-8.292 -8.081 -0.281
-6.931 -6.625 -0.303
-7.443 -7.546 0.102
-7.346 -7.440 0.096
-8.782 -8.862 0.074
-7.559 -8.204 0.632
-15.624 -11.166 -4.474
-7.333 -7.438 0.107
-7.908 -7.422 -0.488
-7.333 -7.438 0.107
-6.755 -6.883 0.130
-8.245 -7.681 -0.589
-9.525 -6.691 -2.841
-7.478 -7.752 0.276
-7.882 -7.427 -0.456
-7.513 -7.751 0.240
-7.882 -7.427 -0.456
-8.450 -7.728 -0.722
-12.104 -10.342 -1.776
-7.777 -8.045 0.262
-15.625 -11.166 -4.474
-9.002 -6.621 -2.396
-7.777 -8.045 0.262
-6.754 -6.883 0.131
-7.346 -7.440 0.096
-8.098 -5.554 -2.589
-6.754 -6.884 0.131
-7.892 -7.425 -0.469
-7.777 -8.045 0.263
-15.625 -11.166 -4.474
-6.753 -6.884 0.132
-15.625 -11.166 -4.474
-15.625 -11.166 -4.474
-9.605 -6.685 -2.926
-8.896 -8.485 -0.448
-15.625 -11.166 -4.474
-7.777 -8.045 0.263
-7.559 -8.204 0.632
-6.754 -6.884 0.131
-15.625 -11.166 -4.474
-8.414 -8.059 -0.372
-8.370 -6.556 -1.821
-7.892 -7.425 -0.468
-7.914 -7.513 -0.420
-6.753 -6.884 0.132
-15.615 -11.165 -4.466
-6.748 -6.884 0.137
-7.261 -7.623 0.364
-8.858 -6.631 -2.252
-8.254 -7.679 -0.601
-6.754 -6.884 0.132
-7.935 -7.514 -0.440
-7.777 -8.046 0.263
-8.186 -7.808 -0.417
-7.518 -7.750 0.234
-7.443 -7.542 0.098
-9.528 -6.691 -2.844
-7.935 -7.514 -0.440
-7.940 -7.508 -0.454
-8.350 -7.710 -0.641
-9.563 -6.990 -2.580
-8.606 -6.131 -2.515
-7.335 -7.438 0.105
-9.528 -6.691 -2.844
-7.777 -8.045 0.263
-7.722 -7.883 0.155
-7.534 -7.748 0.217
-9.563 -6.990 -2.580
-8.246 -7.674 -0.601
-6.753 -6.884 0.132
-8.186 -7.808 -0.417
-15.625 -11.167 -4.474
-7.892 -7.425 -0.468
-15.625 -11.166 -4.474
-9.002 -6.621 -2.396
-8.254 -7.679 -0.601
-7.335 -7.438 0.105
-9.002 -6.621 -2.396
-8.858 -6.635 -2.249
-8.306 -8.075 -0.307
-7.335 -7.438 0.105
-15.625 -11.166 -4.474
-7.275 -7.623 0.350
-8.141 -7.584 -0.559
-8.350 -7.710 -0.641
-6.754 -6.884 0.131
-7.335 -7.438 0.105
-12.104 -10.342 -1.776
-12.104 -10.342 -1.776
-15.625 -11.166 -4.474
-6.754 -6.883 0.131
-6.987 -6.986 0.002
-9.563 -6.990 -2.580
-6.609 -6.471 -0.138
-7.777 -8.045 0.262
-7.443 -7.546 0.101
-8.186 -7.808 -0.417
-8.858 -6.635 -2.249
-7.443 -7.546 0.102
-7.777 -8.045 0.262
-8.237 -7.678 -0.585
-7.443 -7.549 0.104
-8.896 -8.485 -0.448
-6.779 -7.195 0.418
-9.527 -6.691 -2.843
-7.892 -7.425 -0.468
-6.779 -7.195 0.418
-15.625 -11.166 -4.474
-6.753 -6.883 0.132
-8.092 -6.278 -1.826
-8.306 -8.076 -0.306
-8.768 -6.648 -2.144
-7.777 -8.045 0.263
-8.469 -8.048 -0.440
-7.777 -8.045 0.263
-7.443 -7.547 0.102
-8.141 -7.584 -0.559
-8.141 -7.584 -0.559
-8.887 -8.484 -0.440
-7.422 -7.094 -0.369
-7.335 -7.438 0.105
-8.782 -8.862 0.074
-15.625 -11.166 -4.474
-8.370 -6.556 -1.821
-7.722 -7.883 0.156
-15.625 -11.166 -4.474
-8.858 -6.635 -2.249
-8.370 -6.556 -1.821
-8.098 -5.554 -2.589
-8.768 -6.648 -2.144
-7.892 -7.425 -0.468
-7.777 -8.045 0.263
-9.563 -6.990 -2.580
-8.915 -8.475 -0.480
-7.443 -7.547 0.103
-8.246 -7.674 -0.601
-6.608 -6.471 -0.137
-15.625 -11.166 -4.474
-8.323 -7.900 -0.440
-8.370 -6.556 -1.821
-7.986 -5.576 -2.455
-9.002 -6.621 -2.396
-13.311 -10.965 -2.506
-15.625 -11.166 -4.474
-7.335 -7.438 0.105
-6.896 -7.326 0.423
-6.931 -6.625 -0.303
-7.777 -8.045 0.263
-7.484 -7.751 0.269
-7.346 -7.440 0.096
-7.518 -7.750 0.234
-8.858 -6.635 -2.249
-6.754 -6.883 0.131
-7.443 -7.547 0.102
-8.370 -6.556 -1.821
-7.906 -7.421 -0.488
-6.931 -6.625 -0.303
-12.104 -10.342 -1.777
-15.615 -11.165 -4.466
-8.098 -5.554 -2.589
-12.104 -10.342 -1.776
-7.777 -8.045 0.263
-8.323 -7.900 -0.440
-9.528 -6.691 -2.844
-6.931 -6.625 -0.303
-8.329 -7.721 -0.608
-7.906 -7.421 -0.489
-7.559 -8.204 0.632
-12.104 -10.342 -1.776
-6.754 -6.883 0.131
-13.298 -10.837 -2.704
-7.335 -7.438 0.105
-7.777 -8.045 0.262
-7.443 -7.547 0.103
-7.722 -7.883 0.155
-7.335 -7.438 0.105
-7.777 -8.045 0.262
-6.754 -6.883 0.131
-7.443 -7.546 0.102
-6.931 -6.625 -0.303
-7.777 -8.045 0.262
-15.625 -11.166 -4.474
-7.909 -7.425 -0.486
-6.608 -6.471 -0.137
-7.559 -8.204 0.632
-9.528 -6.691 -2.844
-7.031 -6.926 -0.103
-8.768 -6.648 -2.144
-7.777 -8.045 0.263
-6.753 -6.883 0.131
-8.098 -5.554 -2.589
-9.563 -6.990 -2.580
-8.329 -7.721 -0.608
-7.335 -7.438 0.105
-6.931 -6.625 -0.303
-7.722 -7.883 0.155
-15.625 -11.166 -4.474
-7.422 -7.094 -0.369
-8.782 -8.862 0.074
-6.962 -7.390 0.430
-7.442 -7.546 0.102
-6.939 -6.865 -0.072
-8.254 -7.679 -0.601
-7.722 -7.883 0.155
-9.359 -10.429 1.051
-7.909 -7.425 -0.486
-7.722 -7.883 0.155
-7.443 -7.547 0.102
-7.518 -7.750 0.234
-7.443 -7.547 0.103
-9.563 -6.990 -2.580
-15.625 -11.166 -4.474
-7.443 -7.547 0.103
-6.753 -6.883 0.131
-7.193 -7.551 0.360
-7.722 -7.883 0.155
-7.559 -8.204 0.632
-6.753 -6.883 0.131
-7.443 -7.546 0.101
-8.092 -6.278 -1.826
-7.180 -7.031 -0.147
-8.333 -6.568 -1.773
-6.931 -6.625 -0.303
-7.777 -8.045 0.263
-7.443 -7.546 0.102
-9.528 -6.691 -2.844
-7.031 -6.926 -0.103
-9.528 -6.691 -2.844
-7.777 -8.045 0.263
-8.098 -5.554 -2.589
-7.443 -7.549 0.104
-6.779 -7.195 0.418
-9.400 -6.703 -2.704
-9.377 -9.500 0.054
-9.528 -6.691 -2.844
-8.098 -5.554 -2.589
-8.370 -6.556 -1.821
-7.777 -8.045 0.263
-7.443 -7.544 0.100
-8.092 -6.278 -1.826
-8.244 -7.673 -0.600
-7.440 -7.548 0.106
-8.333 -6.567 -1.773
-8.262 -7.897 -0.381
-7.769 -8.047 0.272
-6.517 -6.607 0.093
-6.845 -6.484 -0.359
-6.751 -6.883 0.134
-8.369 -6.557 -1.820
-9.561 -6.990 -2.578
-6.675 -6.432 -0.242
-7.439 -7.547 0.106
-15.624 -11.166 -4.473
-6.746 -6.883 0.139
-15.624 -11.166 -4.473
-8.313 -7.903 -0.427
-7.031 -6.926 -0.103
-6.930 -6.625 -0.303
-6.611 -6.473 -0.138
-7.513 -7.751 0.240
-7.513 -7.751 0.240
-7.060 -6.980 -0.077
-8.327 -7.903 -0.440
-7.439 -7.545 0.105
-8.405 -8.064 -0.357
-12.101 -10.343 -1.774
-12.101 -10.343 -1.774
-10.661 -10.610 -0.060
-7.513 -7.751 0.240
-9.561 -6.990 -2.578
-8.179 -7.579 -0.602
-6.932 -6.625 -0.304
-15.624 -11.166 -4.473
-8.235 -7.676 -0.588
-7.882 -7.427 -0.456
-15.623 -11.166 -4.473
-8.236 -7.676 -0.589
-6.751 -6.883 0.134
-15.623 -11.166 -4.473
-8.909 -8.479 -0.468
-8.254 -7.677 -0.606
-6.675 -6.432 -0.242
-7.512 -7.751 0.241
-7.782 -8.048 0.261
-7.179 -7.031 -0.146
-7.897 -7.424 -0.476
-7.916 -7.424 -0.495
-9.561 -6.990 -2.577
-7.927 -7.510 -0.438
-8.096 -5.555 -2.586
-7.927 -7.510 -0.438
-6.675 -6.432 -0.241
-7.782 -8.048 0.261
-6.675 -6.432 -0.241
-8.899 -8.478 -0.460
-8.178 -7.781 -0.397
-7.769 -8.047 0.273
-13.309 -10.947 -2.539
-9.525 -6.691 -2.841
-7.438 -7.547 0.107
-7.916 -7.424 -0.495
-8.761 -8.873 0.107
-12.101 -10.343 -1.774
-7.915 -7.424 -0.494
-8.313 -7.903 -0.426
-8.898 -8.478 -0.460
-9.525 -6.691 -2.841
-7.513 -7.751 0.240
-5.067 -5.621 0.555
-8.778 -8.863 0.079
-7.439 -7.546 0.106
-6.763 -6.885 0.123
-8.217 -7.800 -0.459
-15.623 -11.166 -4.473
-7.542 -8.207 0.651
-7.917 -7.424 -0.496
-7.917 -7.424 -0.496
-7.949 -7.511 -0.459
-7.510 -7.551 0.040
-7.927 -7.510 -0.439
-7.448 -7.547 0.098
-10.667 -10.597 -0.077
-5.225 -5.250 0.024
-5.904 -6.095 0.190
-5.225 -5.250 0.024
-5.929 -5.808 -0.134
-5.821 -5.806 -0.032
-5.821 -5.806 -0.032
-6.085 -6.241 0.085
-5.963 -6.096 0.131
-5.821 -5.806 -0.032
-5.821 -5.806 -0.032
-5.633 -5.441 -0.191
-5.917 -6.264 0.312
-5.917 -6.264 0.312
-6.180 -5.941 -0.254
-5.821 -5.806 -0.032
-5.340 -5.448 0.103
-6.399 -5.956 -0.458
-6.181 -5.941 -0.254
-5.917 -6.264 0.311
-5.867 -5.852 -0.025
-5.821 -5.806 -0.032
-6.470 -5.827 -0.675
-5.850 -5.941 0.087
-5.217 -5.646 0.427
-5.633 -5.441 -0.191
-5.904 -6.095 0.190
-5.573 -5.624 0.047
-7.329 -5.405 -2.073
-6.399 -5.956 -0.458
-5.904 -6.095 0.190
-6.399 -5.956 -0.458
-5.746 -5.633 -0.117
-5.904 -6.095 0.190
-6.085 -6.241 0.085
-5.217 -5.645 0.426
-7.329 -5.405 -2.073
-5.904 -6.095 0.190
-5.656 -5.796 0.120
-6.085 -6.241 0.085
-5.771 -5.633 -0.141
-6.399 -5.956 -0.458
-6.399 -5.956 -0.458
-5.217 -5.645 0.426
-6.399 -5.956 -0.458
-5.217 -5.645 0.426
-5.657 -5.795 0.119
-5.541 -5.624 0.079
-5.821 -5.806 -0.032
-6.399 -5.956 -0.458
-5.666 -5.850 0.183
-6.085 -6.241 0.085
-5.821 -5.806 -0.032
-5.217 -5.645 0.426
-5.633 -5.441 -0.191
-6.399 -5.956 -0.458
-7.329 -5.405 -2.073
-5.693 -6.123 0.430
-5.877 -5.940 0.059
-6.399 -5.956 -0.458
-5.306 -5.447 0.136
-5.633 -5.441 -0.191
-5.541 -5.624 0.079
-5.771 -5.633 -0.141
-6.399 -5.956 -0.458
-5.574 -5.624 0.046
-6.153 -6.160 -0.015
-5.667 -5.850 0.183
-6.399 -5.956 -0.458
-5.542 -5.624 0.078
-6.130 -5.846 -0.291
-5.541 -5.624 0.079
-6.414 -6.374 -0.183
-6.399 -5.956 -0.458
-7.329 -5.405 -2.073
-7.329 -5.405 -2.073
-5.765 -6.133 0.368
-6.399 -5.956 -0.458
-6.470 -5.827 -0.675
-5.963 -6.096 0.131
-5.771 -5.633 -0.141
-5.667 -5.850 0.183
-6.181 -5.941 -0.254
-5.746 -5.633 -0.117
-5.633 -5.441 -0.191
-6.180 -5.941 -0.253
-5.963 -6.096 0.131
-5.217 -5.646 0.427
-5.821 -5.806 -0.032
-5.574 -5.624 0.046
-5.071 -5.620 0.550
-6.130 -5.846 -0.291
-5.633 -5.441 -0.191
-5.821 -5.806 -0.032
-7.329 -5.405 -2.073
-6.399 -5.956 -0.458
-5.821 -5.806 -0.032
-5.850 -5.941 0.087
-6.399 -5.956 -0.458
-6.268 -5.941 -0.357
-6.414 -6.374 -0.183
-7.329 -5.405 -2.073
-5.306 -5.447 0.136
-6.470 -5.827 -0.675
-6.085 -6.241 0.085
-5.857 -5.663 -0.192
-7.329 -5.405 -2.073
-5.857 -5.663 -0.192
-6.470 -5.827 -0.675
-6.085 -6.241 0.085
-6.414 -6.374 -0.183
-5.694 -6.123 0.430
-7.784 -8.048 0.258
-6.442 -5.908 -0.549
-5.821 -5.806 -0.032
-6.375 -5.948 -0.441
-5.657 -5.795 0.119
-6.043 -6.239 0.128
-5.821 -5.806 -0.032
-5.821 -5.806 -0.032
-5.306 -5.447 0.136
-6.375 -5.948 -0.441
-5.529 -5.348 -0.194
-4.925 -5.058 0.133
-6.927 -5.443 -1.627
-6.305 -5.947 -0.387
-6.085 -6.241 0.085
-5.632 -5.441 -0.191
-5.746 -5.633 -0.117
-4.995 -4.996 0.001
-6.927 -5.443 -1.627
-5.028 -5.646 0.620
-6.399 -5.956 -0.458
-4.996 -4.996 0.001
-5.865 -5.664 -0.199
-5.633 -5.441 -0.191
-5.614 -5.847 0.233
-5.247 -5.509 0.257
-7.329 -5.405 -2.073
-5.554 -5.510 -0.048
-6.375 -5.948 -0.442
-6.399 -5.956 -0.458
-5.073 -5.376 0.305
-5.633 -5.441 -0.191
-6.208 -5.941 -0.281
-7.329 -5.405 -2.073
-5.630 -5.453 -0.182
-5.615 -5.847 0.233
-5.097 -5.376 0.281
-5.515 -5.511 -0.008
-5.633 -5.441 -0.191
-5.554 -5.510 -0.047
-5.554 -5.510 -0.047
-5.634 -5.613 -0.024
-5.025 -5.387 0.363
-5.536 -5.626 0.085
-8.264 -7.679 -0.614
-5.072 -6.006 0.936
-5.536 -5.626 0.085
-5.693 -6.123 0.430
-6.030 -6.168 0.122
-5.634 -5.613 -0.024
-5.307 -5.447 0.136
-5.554 -5.510 -0.047
-9.361 -10.428 1.049
-5.656 -5.795 0.119
-5.090 -5.501 0.408
-5.554 -5.510 -0.047
-5.247 -5.509 0.257
-5.821 -5.806 -0.032
-6.180 -5.941 -0.254
-4.926 -5.058 0.133
-5.226 -5.504 0.279
-5.904 -6.095 0.190
-6.414 -6.374 -0.183
-5.857 -5.663 -0.192
-5.765 -6.133 0.368
-7.329 -5.405 -2.074
-5.693 -6.123 0.430
-5.656 -5.795 0.120
-5.070 -5.620 0.551
-6.722 -6.332 -0.450
-6.130 -5.846 -0.291
-5.025 -5.386 0.363
-6.180 -5.941 -0.253
-5.110 -5.376 0.267
-6.722 -6.332 -0.450
-5.857 -5.663 -0.192
-5.542 -5.624 0.078
-15.626 -11.165 -4.477
-6.375 -5.948 -0.441
-5.072 -5.376 0.306
-7.329 -5.405 -2.074
-5.552 -5.623 0.067
-7.135 -6.961 -0.187
-6.722 -6.332 -0.449
-5.088 -5.326 0.239
-5.072 -5.376 0.305
-5.071 -5.620 0.550
-6.213 -5.940 -0.286
-5.072 -5.376 0.305
-5.657 -5.795 0.118
-5.657 -5.795 0.118
-6.268 -5.941 -0.357
-5.306 -5.447 0.136
-5.058 -5.640 0.583
-5.705 -5.600 -0.103
-6.031 -6.167 0.120
-5.502 -5.865 0.363
-5.247 -5.508 0.257
-5.250 -4.797 -0.457
-5.633 -5.441 -0.191
-6.361 -5.878 -0.482
-5.732 -5.803 0.054
-6.670 -6.357 -0.366
-6.180 -5.941 -0.253
-5.217 -5.646 0.428
-5.693 -6.123 0.430
-5.656 -5.795 0.120
-7.329 -5.405 -2.074
-5.073 -5.376 0.305
-6.208 -5.940 -0.282
-5.693 -6.123 0.430
-5.574 -5.624 0.046
-5.821 -5.806 -0.032
-5.250 -4.855 -0.412
-4.650 -5.167 0.518
-5.918 -6.264 0.311
-5.574 -5.624 0.046
-6.399 -5.956 -0.458
-6.414 -6.374 -0.183
-5.821 -5.806 -0.032
-6.361 -5.878 -0.482
-6.414 -6.374 -0.183
-5.367 -6.069 0.700
-5.666 -5.850 0.183
-6.030 -6.167 0.121
-6.180 -5.941 -0.253
-6.862 -7.364 0.504
-5.821 -5.806 -0.032
-6.208 -5.940 -0.281
-5.554 -5.510 -0.048
-5.266 -5.338 0.073
-6.375 -5.948 -0.441
-5.746 -5.633 -0.117
-5.058 -5.640 0.584
-7.329 -5.405 -2.074
-4.606 -5.165 0.561
-5.614 -6.013 0.375
-5.126 -5.384 0.191
-5.058 -5.640 0.583
-5.516 -5.511 -0.009
-5.058 -5.639 0.582
-6.929 -5.444 -1.628
-3.894 -4.042 0.147
-5.071 -5.620 0.550
-5.058 -5.640 0.583
-6.240 -5.930 -0.331
-5.088 -5.326 0.239
-7.329 -5.405 -2.074
-6.785 -6.894 0.111
-5.821 -5.806 -0.032
-7.329 -5.405 -2.074
-4.550 -4.673 0.124
-5.541 -5.624 0.078
-5.549 -5.623 0.070
-5.359 -6.063 0.651
-5.705 -5.600 -0.103
-6.181 -5.941 -0.254
-5.865 -5.664 -0.199
-5.963 -6.096 0.131
-5.705 -5.600 -0.102
-7.329 -5.405 -2.074
-6.399 -5.956 -0.458
-5.993 -5.948 -0.052
-6.376 -5.948 -0.442
-5.027 -5.646 0.620
-4.650 -5.167 0.518
-6.208 -5.940 -0.281
-5.072 -5.376 0.306
-6.181 -5.941 -0.254
-5.085 -5.377 0.293
-5.657 -5.795 0.119
-6.414 -6.374 -0.183
-6.269 -5.941 -0.357
-5.930 -5.808 -0.135
-6.208 -5.940 -0.282
-5.516 -5.511 -0.009
-6.470 -5.827 -0.675
-5.098 -5.376 0.280
-5.657 -5.795 0.119
-5.693 -6.123 0.430
-5.070 -5.620 0.551
-5.097 -5.376 0.281
-5.850 -5.941 0.088
-8.306 -8.071 -0.309
-6.927 -5.443 -1.627
-7.329 -5.405 -2.074
-7.329 -5.405 -2.074
-5.821 -5.806 -0.032
-5.071 -5.620 0.551
-5.857 -5.663 -0.192
-5.309 -5.708 0.401
-4.857 -5.045 0.189
-6.626 -5.797 -1.069
-4.998 -5.248 0.249
-5.340 -5.448 0.103
-5.058 -5.640 0.584
-6.180 -5.941 -0.254
-5.231 -4.760 -0.472
-5.112 -5.325 0.214
-6.180 -5.941 -0.254
-6.305 -5.948 -0.387
-6.268 -5.941 -0.356
-5.051 -5.412 0.363
-5.026 -5.386 0.362
-7.449 -7.548 0.097
-6.399 -5.956 -0.458
-5.561 -5.791 0.209
-4.650 -5.167 0.518
-7.329 -5.405 -2.074
-7.297 -7.201 -0.167
-5.059 -5.306 0.249
-5.073 -5.997 0.926
-6.671 -6.356 -0.367
-6.442 -5.908 -0.549
-5.072 -5.376 0.306
-4.650 -5.167 0.518
-5.072 -5.997 0.927
-5.072 -5.376 0.306
-6.720 -6.332 -0.448
-6.720 -6.332 -0.448
-5.541 -5.624 0.079
-5.554 -5.510 -0.048
-4.959 -5.245 0.286
-5.088 -5.326 0.239
-6.208 -5.940 -0.281
-5.088 -5.326 0.239
-5.097 -5.376 0.280
-6.399 -5.956 -0.458
-5.561 -5.791 0.209
-5.516 -5.511 -0.009
-6.929 -5.444 -1.627
-5.866 -5.664 -0.200
-5.098 -5.376 0.280
-6.268 -5.941 -0.357
-5.561 -5.790 0.209
-4.651 -5.167 0.518
-6.181 -5.941 -0.254
-5.705 -5.602 -0.101
-5.059 -5.306 0.249
-6.181 -5.941 -0.254
-5.561 -5.791 0.209
-5.072 -5.376 0.306
-4.819 -5.111 0.294
-5.006 -5.629 0.625
-5.705 -5.601 -0.102
-5.561 -5.791 0.209
-6.181 -5.941 -0.254
-5.071 -5.620 0.550
-5.748 -6.313 0.566
-5.042 -5.402 0.361
-6.267 -5.941 -0.356
-5.226 -5.504 0.279
-7.329 -5.405 -2.074
-5.657 -5.795 0.119
-6.208 -5.940 -0.281
-6.400 -6.368 -0.181
-5.867 -5.852 -0.025
-5.561 -5.791 0.209
-5.657 -5.795 0.119
-5.857 -5.663 -0.192
-4.857 -5.045 0.189
-6.267 -5.941 -0.355
-6.927 -5.443 -1.627
-5.309 -5.707 0.400
-5.552 -5.623 0.067
-5.278 -5.255 -0.024
-5.762 -5.763 -0.009
-6.414 -6.374 -0.183
-5.309 -5.708 0.400
-5.657 -5.795 0.119
-5.088 -5.326 0.239
-7.329 -5.405 -2.074
-5.246 -5.706 0.462
-5.561 -5.790 0.209
-5.565 -5.790 0.205
-5.657 -5.795 0.119
-5.614 -5.847 0.233
-5.058 -5.306 0.249
-5.121 -5.325 0.205
-5.550 -5.510 -0.043
-6.786 -6.402 -0.512
-6.237 -5.929 -0.329
-8.113 -6.872 -1.247
-7.329 -5.405 -2.074
-5.555 -5.510 -0.048
-6.928 -5.441 -1.630
-6.030 -6.167 0.121
-5.715 -6.330 0.616
-5.059 -5.306 0.249
-5.561 -5.791 0.209
-6.670 -6.356 -0.367
-6.926 -5.741 -1.431
-6.805 -6.394 -0.539
-5.930 -5.808 -0.135
-7.082 -6.328 -0.912
-5.930 -5.808 -0.135
-5.059 -5.306 0.248
-5.997 -6.316 0.320
-5.027 -5.646 0.620
-5.059 -5.306 0.249
-6.305 -5.948 -0.387
-5.657 -5.795 0.119
-5.657 -5.795 0.119
-5.657 -5.795 0.119
-4.152 -4.458 0.307
-5.561 -5.791 0.210
-5.041 -5.410 0.369
-6.180 -5.941 -0.253
-5.288 -5.257 -0.032
-4.606 -5.166 0.561
-6.267 -5.942 -0.355
-5.959 -6.169 0.196
-5.516 -5.511 -0.009
-7.213 -6.930 -0.338
-5.555 -5.866 0.313
-5.058 -5.637 0.580
-6.305 -5.948 -0.386
-6.181 -5.941 -0.254
-6.712 -6.363 -0.399
-6.305 -5.948 -0.386
-4.959 -5.245 0.286
-7.231 -5.560 -1.790
-4.959 -5.245 0.286
-5.959 -6.168 0.196
-5.042 -5.399 0.358
-4.959 -5.245 0.286
-7.329 -5.405 -2.074
-5.243 -5.774 0.532
-7.232 -5.559 -1.792
-5.857 -5.663 -0.193
-5.073 -5.997 0.926
-12.102 -10.341 -1.776
-5.542 -5.624 0.078
-6.268 -5.941 -0.356
-5.073 -5.997 0.926
-5.997 -6.316 0.320
-7.784 -8.043 0.251
-7.775 -8.046 0.265
-5.059 -5.306 0.249
-4.819 -5.111 0.294
-5.231 -4.762 -0.470
-5.561 -5.791 0.209
-5.694 -6.123 0.430
-5.226 -5.504 0.279
-5.856 -5.663 -0.191
-5.072 -5.376 0.307
-5.747 -6.313 0.566
-5.057 -5.640 0.584
-5.310 -6.349 1.039
-5.087 -5.326 0.240
-4.657 -5.420 0.748
-6.265 -5.942 -0.352
-6.265 -6.133 -0.139
-5.803 -5.598 -0.302
-6.180 -5.941 -0.253
-5.560 -5.791 0.211
-5.353 -6.345 0.992
-5.087 -5.326 0.240
-5.241 -5.779 0.539
-5.560 -5.791 0.211
-5.958 -6.169 0.198
-7.229 -5.561 -1.788
-5.821 -5.806 -0.032
-6.391 -6.219 -0.211
-5.251 -4.779 -0.475
-7.339 -7.309 -0.128
-6.180 -5.941 -0.253
-6.266 -5.942 -0.354
-5.225 -5.251 0.026
-5.087 -5.326 0.241
-4.957 -5.246 0.287
-6.798 -6.395 -0.531
-4.957 -5.246 0.287
-5.666 -5.850 0.184
-4.958 -5.246 0.287
-4.606 -5.166 0.562
-5.087 -5.326 0.240
-5.560 -5.791 0.210
-5.634 -5.613 -0.024
-7.230 -5.560 -1.789
-5.560 -5.791 0.210
-5.656 -5.795 0.120
-4.998 -5.248 0.250
-10.525 -10.640 0.072
-6.266 -5.942 -0.354
-6.266 -5.942 -0.354
-5.645 -5.598 -0.045
-5.540 -6.339 0.789
-6.199 -5.942 -0.271
-5.242 -5.779 0.537
-15.627 -11.166 -4.477
-5.367 -6.069 0.700
-7.229 -5.560 -1.789
-5.140 -5.826 0.681
-4.959 -5.246 0.286
-6.266 -5.942 -0.354
-5.041 -5.412 0.371
-6.266 -5.942 -0.354
-6.227 -5.815 -0.453
-6.812 -5.599 -1.325
-6.927 -5.441 -1.630
-5.657 -5.795 0.119
-5.245 -5.707 0.463
-6.926 -5.741 -1.430
-9.002 -6.621 -2.396
-9.606 -6.685 -2.927
-9.528 -6.691 -2.844
-7.033 -6.926 -0.104
-9.632 -6.982 -2.656
-9.632 -6.982 -2.656
-8.094 -6.278 -1.828
-8.097 -5.554 -2.589
-9.002 -6.621 -2.396
-8.094 -6.278 -1.828
-9.605 -6.685 -2.927
-9.528 -6.691 -2.844
-9.605 -6.685 -2.927
-6.845 -6.484 -0.359
-7.033 -6.926 -0.104
-9.528 -6.691 -2.844
-7.426 -7.093 -0.376
-8.094 -6.278 -1.828
-8.914 -6.627 -2.315
-7.426 -7.093 -0.376
-7.426 -7.093 -0.376
-8.094 -6.278 -1.828
-7.033 -6.926 -0.104
-9.605 -6.685 -2.927
-8.372 -6.556 -1.823
-7.426 -7.093 -0.376
-8.094 -6.278 -1.828
-6.801 -6.589 -0.212
-6.611 -6.472 -0.139
-6.801 -6.589 -0.212
-9.605 -6.685 -2.926
-9.605 -6.685 -2.926
-7.426 -7.093 -0.375
-9.605 -6.685 -2.926
-8.372 -6.556 -1.823
-8.372 -6.556 -1.823
-8.097 -5.554 -2.589
-9.631 -6.982 -2.656
-7.426 -7.093 -0.376
-9.605 -6.685 -2.927
-9.605 -6.685 -2.927
-8.914 -6.627 -2.315
-9.631 -6.982 -2.656
-7.206 -7.016 -0.191
-7.206 -7.016 -0.191
-7.422 -7.094 -0.369
-9.002 -6.621 -2.396
-7.449 -7.541 0.091
-9.002 -6.621 -2.396
-8.372 -6.556 -1.823
-8.914 -6.627 -2.314
-6.801 -6.589 -0.212
-8.372 -6.556 -1.823
-9.605 -6.685 -2.926
-9.631 -6.982 -2.656
-8.094 -6.278 -1.828
-8.094 -6.278 -1.828
-7.426 -7.093 -0.375
-8.163 -5.543 -2.666
-7.205 -7.016 -0.191
-7.426 -7.093 -0.375
-8.126 -7.585 -0.543
-9.605 -6.682 -2.929
-9.605 -6.685 -2.926
-8.372 -6.556 -1.823
-7.268 -7.605 0.340
-9.605 -6.685 -2.926
-9.605 -6.685 -2.926
-9.002 -6.621 -2.396
-8.762 -8.873 0.106
-7.425 -7.093 -0.375
-6.845 -6.484 -0.359
-7.205 -7.016 -0.191
-9.604 -6.685 -2.926
-6.845 -6.484 -0.359
-7.439 -7.545 0.105
-8.094 -6.278 -1.828
-9.631 -6.982 -2.656
-7.923 -7.516 -0.426
-9.630 -6.982 -2.655
-9.001 -6.621 -2.395
-6.845 -6.484 -0.358
-9.630 -6.982 -2.655
-9.630 -6.982 -2.655
-6.845 -6.484 -0.358
-8.093 -6.278 -1.828
-8.372 -6.556 -1.823
-9.630 -6.982 -2.655
-8.858 -6.634 -2.249
-15.644 -11.172 -4.488
-6.747 -6.883 0.138
-6.930 -6.625 -0.303
-7.774 -8.047 0.267
-8.372 -6.556 -1.823
-6.930 -6.625 -0.303
-9.631 -6.982 -2.656
-7.499 -6.763 -0.767
-7.157 -7.028 -0.126
-15.645 -11.165 -4.495
-7.032 -6.926 -0.104
-6.930 -6.625 -0.303
-8.914 -6.627 -2.314
-9.002 -6.621 -2.396
-8.463 -8.054 -0.428
-8.094 -6.278 -1.828
-8.971 -6.275 -2.733
-9.631 -6.982 -2.656
-7.775 -8.047 0.266
-6.799 -6.589 -0.211
-7.774 -8.047 0.267
-7.425 -7.093 -0.374
-8.248 -7.678 -0.599
-8.091 -6.278 -1.825
-8.091 -6.278 -1.825
-7.773 -8.046 0.267
-6.844 -6.484 -0.358
-7.425 -7.093 -0.375
-6.800 -6.589 -0.211
-7.156 -7.028 -0.125
-8.092 -6.278 -1.826
-6.800 -6.589 -0.211
-9.605 -6.685 -2.927
-8.099 -5.554 -2.591
-9.606 -6.685 -2.928
-8.092 -6.278 -1.826
-15.625 -11.166 -4.475
-7.030 -6.926 -0.102
-6.930 -6.625 -0.303
-9.603 -6.686 -2.924
-8.369 -6.557 -1.820
-9.376 -9.501 0.056
-7.343 -7.440 0.099
-15.624 -11.166 -4.474
-8.091 -6.278 -1.825
-8.091 -6.278 -1.825
-7.425 -7.093 -0.375
-6.844 -6.484 -0.358
-7.773 -8.046 0.268
-8.913 -6.627 -2.312
-7.156 -7.028 -0.125
-9.562 -6.990 -2.579
-7.031 -6.926 -0.102
-8.091 -6.278 -1.825
-9.604 -6.686 -2.925
-9.630 -6.982 -2.654
-8.091 -6.278 -1.825
-8.246 -7.678 -0.597
-7.925 -7.423 -0.505
-8.091 -6.278 -1.824
-8.091 -6.278 -1.824
-7.899 -7.428 -0.473
-7.513 -7.751 0.240
-6.845 -6.484 -0.358
-8.969 -6.276 -2.731
-8.912 -6.627 -2.312
-9.603 -6.686 -2.923
-9.603 -6.686 -2.923
-7.897 -7.424 -0.477
-8.899 -8.478 -0.460
-7.156 -7.028 -0.125
-7.425 -7.093 -0.375
-9.629 -6.983 -2.653
-7.425 -7.093 -0.375
-8.091 -6.279 -1.824
-8.369 -6.557 -1.819
-6.845 -6.484 -0.358
-6.845 -6.484 -0.358
-8.369 -6.557 -1.819
-9.629 -6.983 -2.653
-8.912 -6.628 -2.312
-8.369 -6.557 -1.819
-8.912 -6.628 -2.312
-9.602 -6.686 -2.923
-8.369 -6.557 -1.819
-9.602 -6.686 -2.923
-9.000 -6.622 -2.393
-7.425 -7.093 -0.375
-8.245 -7.681 -0.589
-8.090 -6.279 -1.824
-9.601 -6.686 -2.921
-7.425 -7.093 -0.375
-7.205 -7.016 -0.190
-6.961 -6.792 -0.172
-8.237 -7.676 -0.589
-7.425 -7.093 -0.375
-6.420 -6.309 -0.109
-6.681 -7.122 0.443
-7.425 -7.093 -0.375
-6.655 -6.412 -0.241
-6.800 -6.589 -0.211
-7.182 -7.545 0.364
-7.425 -7.093 -0.375
-8.369 -6.557 -1.819
-5.800 -7.186 1.384
-8.912 -6.628 -2.311
-8.284 -8.074 -0.285
-8.782 -8.863 0.075
-8.369 -6.557 -1.819
-8.369 -6.557 -1.819
-9.602 -6.686 -2.923
-8.912 -6.628 -2.312
-7.425 -7.093 -0.375
-8.091 -6.279 -1.824
-5.800 -7.186 1.384
-6.656 -6.412 -0.242
-15.623 -11.167 -4.473
-5.800 -7.186 1.384
-7.512 -7.751 0.241
-7.156 -7.028 -0.125
-8.091 -6.278 -1.824
-7.031 -6.926 -0.103
-7.772 -8.047 0.269
-11.972 -8.368 -3.610
-7.031 -6.926 -0.103
-7.031 -6.926 -0.103
-8.369 -6.557 -1.819
-6.986 -6.972 -0.035
-7.250 -7.600 0.353
-7.156 -7.028 -0.125
-7.425 -7.093 -0.375
-9.602 -6.686 -2.922
-9.628 -6.983 -2.653
-5.140 -5.826 0.681
-8.091 -6.278 -1.825
-7.404 -7.852 0.377
-6.960 -7.391 0.434
-6.681 -7.122 0.443
-7.768 -8.048 0.273
-7.768 -8.048 0.273
-7.434 -7.868 0.346
-6.844 -6.484 -0.358
-8.369 -6.557 -1.819
-12.096 -10.344 -1.767
-6.844 -6.484 -0.358
-6.889 -7.683 0.795
-8.091 -6.279 -1.824
-8.245 -7.681 -0.589
-8.090 -6.279 -1.824
-7.772 -8.047 0.270
-9.601 -6.686 -2.921
-8.090 -6.279 -1.824
-8.090 -6.279 -1.824
-9.601 -6.686 -2.921
-8.899 -8.478 -0.460
-8.091 -6.279 -1.824
-8.091 -6.279 -1.824
-7.468 -6.883 -0.628
-9.028 -8.191 -1.078
-6.750 -6.883 0.134
-11.972 -8.368 -3.610
-9.602 -6.686 -2.923
-9.000 -6.622 -2.393
-8.245 -7.681 -0.589
-6.681 -7.122 0.443
-6.844 -6.484 -0.358
-7.770 -8.048 0.273
-9.627 -6.983 -2.650
-8.090 -6.279 -1.823
-7.922 -7.516 -0.424
-8.486 -8.042 -0.468
-9.601 -6.686 -2.921
-8.967 -6.276 -2.729
-6.960 -7.391 0.434
-9.599 -6.687 -2.919
-9.626 -6.983 -2.650
-6.844 -6.484 -0.358
-9.626 -6.983 -2.650
-9.626 -6.983 -2.650
-8.090 -6.279 -1.823
-7.552 -8.208 0.643
-7.010 -8.370 1.360
-7.328 -7.123 -0.271
-10.760 -7.806 -3.040
-6.844 -6.484 -0.358
-6.724 -6.574 -0.147
-8.091 -6.279 -1.824
-7.343 -7.440 0.100
-8.091 -6.279 -1.824
-6.420 -6.309 -0.109
-8.761 -8.873 0.107
-6.930 -6.625 -0.303
-7.899 -7.428 -0.473
-9.804 -7.857 -2.650
-8.262 -7.897 -0.381
-9.000 -6.622 -2.393
-7.922 -7.516 -0.424
-9.628 -6.983 -2.652
-8.332 -7.713 -0.620
-11.972 -8.368 -3.610
-8.761 -8.873 0.107
-7.922 -7.516 -0.424
-9.628 -6.983 -2.652
-7.031 -6.926 -0.102
-8.911 -6.628 -2.311
-9.628 -6.983 -2.652
-8.090 -6.279 -1.824
-6.844 -6.484 -0.358
-7.156 -7.028 -0.125
-7.425 -7.093 -0.375
-9.601 -6.686 -2.921
-6.415 -7.561 1.147
-7.425 -7.093 -0.375
-9.629 -6.983 -2.653
-6.844 -6.484 -0.358
-11.972 -8.368 -3.610
-6.420 -6.309 -0.109
-8.369 -6.557 -1.819
-8.898 -8.472 -0.471
-7.425 -7.093 -0.375
-6.864 -4.487 -2.521
-8.369 -6.557 -1.819
-6.844 -6.484 -0.358
-8.091 -6.279 -1.824
-7.490 -7.753 0.265
-8.091 -6.278 -1.824
-8.091 -6.278 -1.824
-6.930 -6.625 -0.303
-8.778 -8.863 0.079
-8.369 -6.557 -1.820
-8.369 -6.557 -1.820
-8.091 -6.278 -1.824
-8.369 -6.557 -1.820
-11.911 -8.452 -3.543
-8.748 -6.654 -2.117
-7.771 -8.047 0.270
-7.425 -7.093 -0.375
-9.602 -6.686 -2.923
-5.539 -6.339 0.789
-6.619 -6.476 -0.144
-6.930 -6.625 -0.303
-15.624 -11.166 -4.473
-6.432 -7.561 1.130
-11.972 -8.368 -3.610
-7.425 -7.093 -0.375
-8.245 -7.681 -0.589
-8.090 -6.279 -1.824
-9.601 -6.686 -2.921
-8.186 -7.678 -0.534
-7.179 -7.543 0.365
-8.748 -6.654 -2.117
-7.513 -7.751 0.240
-8.091 -6.278 -1.824
-15.624 -11.166 -4.474
-8.914 -6.627 -2.314
-6.004 -6.896 0.825
-7.468 -6.883 -0.628
-8.091 -6.279 -1.824
-5.826 -4.950 -0.894
-7.425 -7.093 -0.375
-7.425 -7.093 -0.375
-9.629 -6.983 -2.653
-6.745 -6.884 0.140
-7.528 -7.749 0.224
-6.415 -7.562 1.148
-8.912 -6.628 -2.311
-8.332 -6.568 -1.771
-9.819 -7.378 -2.489
-8.090 -6.279 -1.824
-6.844 -6.484 -0.358
-6.420 -6.309 -0.109
-9.601 -6.686 -2.922
-15.642 -11.166 -4.493
-6.889 -8.368 1.477
-9.629 -6.983 -2.653
-9.602 -6.686 -2.923
-6.930 -6.625 -0.303
-8.163 -7.580 -0.586
-15.642 -11.166 -4.493
-8.912 -6.628 -2.311
-7.468 -6.883 -0.628
-5.843 -6.878 0.960
-7.425 -7.093 -0.375
-9.629 -6.983 -2.653
-5.826 -4.950 -0.894
-8.164 -7.580 -0.587
-15.623 -11.166 -4.473
-5.800 -7.186 1.384
-8.369 -6.557 -1.819
-9.601 -6.686 -2.921