-5.473 -4.708 -0.767
-3.858 -3.779 -0.078
-5.473 -4.708 -0.766
-3.858 -3.779 -0.078
-3.858 -3.779 -0.078
-3.858 -3.779 -0.078
-3.858 -3.779 -0.078
-3.858 -3.779 -0.078
-3.858 -3.779 -0.078
-3.858 -3.779 -0.078
-3.858 -3.779 -0.078
-3.858 -3.779 -0.078
-5.633 -4.715 -0.921
-5.575 -4.704 -0.873
-5.575 -4.704 -0.873
-5.575 -4.704 -0.873
-5.575 -4.704 -0.873
-5.575 -4.704 -0.873
-5.575 -4.704 -0.873
-5.575 -4.704 -0.873
-5.355 -5.066 -0.288
-3.878 -3.779 -0.098
-3.878 -3.779 -0.098
-5.304 -5.239 -0.064
-5.304 -5.239 -0.064
-5.304 -5.239 -0.064
-3.875 -3.779 -0.095
-5.381 -5.070 -0.310
-5.569 -4.704 -0.866
-5.379 -5.070 -0.309
-5.379 -5.070 -0.309
-5.379 -5.070 -0.309
-5.379 -5.070 -0.309
-5.379 -5.070 -0.309
-5.304 -5.239 -0.063
-3.875 -3.779 -0.095
-3.875 -3.779 -0.095
-3.875 -3.779 -0.095
-5.304 -5.239 -0.064
-5.357 -5.066 -0.290
-5.304 -5.239 -0.064
-5.304 -5.239 -0.064
-5.304 -5.239 -0.063
-5.304 -5.239 -0.064
-5.304 -5.239 -0.064
-5.304 -5.239 -0.064
-5.381 -5.070 -0.310
-5.381 -5.070 -0.310
-5.381 -5.070 -0.310
-5.575 -4.704 -0.873
-5.375 -5.052 -0.322
-5.356 -5.066 -0.290
-5.356 -5.066 -0.290
-5.304 -5.239 -0.063
-5.304 -5.239 -0.064
-5.575 -4.704 -0.873
-5.575 -4.704 -0.873
-5.575 -4.704 -0.873
-5.083 -5.484 0.402
-5.144 -5.084 -0.063
-5.022 -5.157 0.132
-5.022 -5.157 0.132
-3.928 -3.776 -0.151
-5.083 -5.484 0.402
-5.349 -5.145 -0.206
-5.349 -5.145 -0.206
-5.349 -5.145 -0.206
-5.129 -5.207 0.077
-5.022 -5.157 0.132
-5.415 -5.857 0.442
-3.928 -3.776 -0.151
-3.939 -3.774 -0.165
-3.939 -3.774 -0.165
-5.304 -5.239 -0.064
-5.304 -5.239 -0.064
-3.875 -3.779 -0.095
-5.354 -5.067 -0.287
-5.354 -5.067 -0.287
-5.654 -5.583 -0.070
-4.270 -4.801 0.531
-5.144 -5.085 -0.062
-5.353 -5.145 -0.210
-3.928 -3.776 -0.152
-5.414 -5.856 0.442
-5.414 -5.857 0.442
-5.414 -5.857 0.442
-5.351 -5.146 -0.207
-5.143 -5.085 -0.062
-5.143 -5.085 -0.062
-5.363 -5.914 0.552
-3.930 -3.776 -0.153
-5.024 -5.155 0.127
-5.024 -5.155 0.127
-5.024 -5.155 0.127
-5.141 -5.203 0.061
-5.150 -5.082 -0.071
-5.653 -5.583 -0.070
-5.415 -5.857 0.442
-4.027 -5.233 1.207
-5.240 -5.847 0.607
-5.240 -5.847 0.607
-5.246 -5.512 0.267
-5.240 -5.263 0.023
-3.871 -3.779 -0.091
-5.484 -5.096 -0.387
-5.484 -5.096 -0.387
-5.484 -5.096 -0.387
-5.239 -5.263 0.025
-5.239 -5.263 0.025
-4.159 -5.031 0.873
-4.159 -5.031 0.873
-4.159 -5.031 0.873
-4.187 -5.293 1.103
-4.159 -5.031 0.873
-4.159 -5.031 0.873
-4.159 -5.031 0.873
-4.159 -5.031 0.873
-4.159 -5.031 0.873
-4.159 -5.031 0.873
-5.007 -5.171 0.161
-5.144 -5.084 -0.063
-5.022 -5.157 0.132
-5.022 -5.157 0.132
-5.022 -5.157 0.132
-5.022 -5.157 0.132
-4.660 -5.349 0.687
-4.660 -5.349 0.687
-4.660 -5.349 0.687
-4.660 -5.349 0.687
-5.022 -5.157 0.132
-5.022 -5.157 0.132
-5.022 -5.157 0.132
-3.928 -3.776 -0.152
-5.422 -5.855 0.433
-5.422 -5.855 0.433
-5.544 -5.077 -0.466
-5.544 -5.077 -0.466
-5.544 -5.077 -0.466
-5.544 -5.077 -0.466
-5.654 -5.583 -0.070
-5.654 -5.583 -0.070
-5.654 -5.583 -0.070
-5.654 -5.583 -0.070
-5.253 -5.510 0.258
-5.654 -5.583 -0.070
-5.253 -5.510 0.258
-5.654 -5.583 -0.070
-5.253 -5.510 0.258
-5.240 -5.263 0.024
-5.018 -5.157 0.135
-5.018 -5.157 0.136
-5.018 -5.157 0.136
-5.018 -5.157 0.136
-5.018 -5.157 0.136
-5.018 -5.157 0.136
-3.947 -3.773 -0.174
-3.947 -3.773 -0.174
-3.947 -3.773 -0.174
-3.947 -3.773 -0.174
-4.660 -5.349 0.687
-5.289 -5.493 0.205
-5.240 -5.263 0.024
-5.240 -5.263 0.024
-5.354 -5.067 -0.287
-5.069 -5.487 0.419
-5.243 -5.848 0.605
-5.654 -5.583 -0.070
-5.246 -5.510 0.265
-5.246 -5.511 0.266
-5.240 -5.263 0.024
-5.241 -5.262 0.023
-5.240 -5.263 0.024
-5.240 -5.263 0.024
-5.240 -5.263 0.024
-5.240 -5.262 0.023
-5.240 -5.263 0.024
-5.240 -5.263 0.024
-5.240 -5.263 0.024
-5.240 -5.263 0.024
-5.240 -5.263 0.024
-5.240 -5.263 0.024
-5.240 -5.263 0.024
-5.240 -5.263 0.024
-4.661 -5.348 0.685
-5.654 -5.583 -0.071
-5.305 -5.239 -0.065
-4.609 -5.330 0.722
-5.319 -5.095 -0.223
-5.241 -5.263 0.023
-5.574 -4.704 -0.871
-5.574 -4.704 -0.871
-5.237 -5.845 0.609
-5.237 -5.845 0.609
-5.237 -5.845 0.609
-5.237 -5.845 0.609
-5.242 -5.263 0.023
-5.237 -5.845 0.609
-5.237 -5.845 0.609
-5.237 -5.845 0.609
-5.237 -5.845 0.609
-5.237 -5.845 0.609
-5.237 -5.845 0.609
-4.166 -5.028 0.863
-4.255 -4.806 0.552
-5.253 -5.510 0.259
-5.253 -5.510 0.259
-5.253 -5.511 0.259
-3.871 -3.779 -0.091
-3.872 -4.687 0.816
-4.661 -5.348 0.685
-4.722 -5.352 0.631
-5.378 -5.071 -0.306
-5.378 -5.071 -0.306
-5.378 -5.071 -0.306
-5.412 -5.854 0.442
-5.240 -5.263 0.024
-5.240 -5.263 0.024
-5.240 -5.263 0.024
-5.240 -5.263 0.024
-5.237 -5.845 0.608
-5.237 -5.845 0.608
-3.673 -5.150 1.479
-4.497 -5.049 0.553
-5.045 -5.182 0.135
-5.045 -5.182 0.135
-5.045 -5.182 0.135
-5.045 -5.182 0.135
-5.417 -5.858 0.441
-5.417 -5.858 0.441
-5.144 -5.085 -0.063
-5.240 -5.263 0.024
-5.240 -5.263 0.024
-5.240 -5.263 0.024
-5.304 -5.240 -0.063
-5.377 -5.071 -0.306
-5.377 -5.071 -0.306
-5.377 -5.071 -0.306
-5.240 -5.263 0.024
-5.241 -5.263 0.023
-4.158 -5.031 0.873
-4.254 -4.806 0.553
-5.377 -5.071 -0.306
-5.377 -5.071 -0.306
-5.240 -5.263 0.024
-5.240 -5.263 0.024
-3.871 -3.779 -0.091
-4.722 -5.352 0.632
-4.722 -5.352 0.632
-4.722 -5.352 0.632
-5.249 -5.847 0.598
-5.240 -5.847 0.608
-3.928 -3.776 -0.151
-3.928 -3.776 -0.151
-4.147 -5.358 1.212
-5.018 -5.157 0.136
-5.018 -5.157 0.136
-4.261 -4.805 0.545
-4.261 -4.805 0.545
-4.261 -4.805 0.545
-5.240 -5.848 0.608
-4.012 -5.170 1.159
-4.053 -4.946 0.894
-4.053 -4.958 0.906
-4.012 -5.170 1.159
-4.053 -4.957 0.906
-4.159 -5.022 0.864
-4.159 -5.024 0.866
-4.075 -4.951 0.866
-4.012 -5.170 1.159
-3.928 -3.776 -0.151
-5.240 -5.848 0.608
-5.240 -5.847 0.608
-5.240 -5.847 0.608
-5.240 -5.848 0.608
-5.240 -5.847 0.608
-5.240 -5.848 0.608
-5.240 -5.847 0.608
-3.807 -4.685 0.878
-3.807 -4.685 0.878
-3.807 -4.685 0.878
-4.660 -5.349 0.687
-4.660 -5.349 0.687
-4.660 -5.349 0.687
-4.660 -5.349 0.687
-4.660 -5.349 0.687
-4.660 -5.349 0.687
-4.660 -5.349 0.687
-4.660 -5.349 0.687
-4.660 -5.349 0.687
-3.259 -4.228 0.967
-3.338 -4.120 0.782
-4.661 -5.348 0.685
-4.661 -5.348 0.684
-4.661 -5.348 0.684
-4.661 -5.348 0.685
-4.661 -5.348 0.685
-4.661 -5.348 0.685
-3.822 -4.682 0.861
-4.169 -5.027 0.858
-4.169 -5.027 0.858
-5.224 -5.506 0.283
-5.224 -5.505 0.282
-4.274 -4.803 0.530
-4.274 -4.803 0.530
-4.274 -4.803 0.530
-4.274 -4.803 0.530
-4.274 -4.803 0.530
-4.274 -4.803 0.530
-5.224 -5.506 0.283
-5.224 -5.506 0.283
-5.224 -5.506 0.283
-5.223 -5.858 0.635
-5.223 -5.858 0.635
-5.223 -5.858 0.635
-5.654 -5.583 -0.070
-3.820 -5.090 1.271
-3.820 -5.090 1.271
-3.820 -5.090 1.271
-3.820 -5.090 1.271
-3.820 -5.090 1.271
-3.820 -5.090 1.271
-3.820 -5.090 1.271
-3.820 -5.090 1.271
-3.820 -5.090 1.271
-3.768 -4.677 0.910
-3.768 -4.677 0.910
-3.768 -4.677 0.910
-3.768 -4.677 0.910
-5.240 -5.261 0.022
-5.240 -5.261 0.022
-5.240 -5.261 0.022
-5.241 -5.261 0.022
-5.240 -5.261 0.022
-5.241 -5.261 0.022
-4.466 -5.333 0.865
-4.466 -5.333 0.865
-4.466 -5.333 0.865
-4.466 -5.333 0.865
-5.583 -4.706 -0.879
-5.583 -4.706 -0.879
-4.466 -5.333 0.866
-5.220 -5.856 0.636
-5.220 -5.856 0.636
-5.220 -5.856 0.636
-5.220 -5.856 0.636
-5.231 -5.505 0.275
-5.231 -5.505 0.275
-3.837 -4.676 0.840
-3.837 -4.676 0.840
-3.837 -4.676 0.840
-3.837 -4.676 0.840
-3.837 -4.676 0.840
-3.869 -3.779 -0.090
-5.221 -5.855 0.635
-5.221 -5.856 0.635
-5.241 -5.261 0.021
-5.241 -5.261 0.022
-5.221 -5.856 0.635
-5.221 -5.855 0.635
-5.221 -5.855 0.635
-5.396 -5.863 0.467
-5.396 -5.864 0.467
-5.396 -5.864 0.467
-5.396 -5.863 0.467
-5.396 -5.864 0.467
-5.396 -5.864 0.467
-5.396 -5.863 0.467
-5.241 -5.261 0.021
-5.241 -5.261 0.022
-5.241 -5.261 0.022
-5.241 -5.261 0.022
-5.240 -5.261 0.022
-5.241 -5.261 0.022
-5.221 -5.855 0.635
-5.241 -5.261 0.021
-5.396 -5.863 0.467
-4.158 -5.345 1.188
-5.386 -5.070 -0.316
-5.386 -5.070 -0.316
-5.326 -5.094 -0.231
-5.233 -5.857 0.624
-5.399 -5.866 0.467
-4.180 -5.360 1.181
-5.306 -5.237 -0.067
-5.386 -5.070 -0.315
-5.386 -5.070 -0.315
-5.386 -5.070 -0.315
-5.386 -5.070 -0.315
-5.306 -5.237 -0.067
-5.386 -5.070 -0.315
-5.386 -5.070 -0.315
-5.386 -5.070 -0.315
-5.386 -5.070 -0.315
-5.386 -5.070 -0.315
-5.386 -5.070 -0.315
-5.386 -5.070 -0.315
-5.386 -5.070 -0.315
-5.386 -5.070 -0.315
-4.110 -5.337 1.229
-4.110 -5.337 1.229
-5.358 -5.144 -0.217
-5.358 -5.144 -0.217
-5.358 -5.144 -0.217
-4.266 -4.799 0.533
-5.067 -5.224 0.156
-4.151 -5.356 1.207
-4.266 -4.799 0.533
-3.990 -5.315 1.326
-3.870 -4.690 0.821
-4.661 -5.348 0.684
-4.661 -5.348 0.684
-4.661 -5.348 0.684
-4.661 -5.348 0.684
-4.661 -5.348 0.684
-4.661 -5.348 0.684
-4.661 -5.348 0.684
-4.661 -5.348 0.684
-4.661 -5.348 0.684
-4.246 -5.365 1.120
-4.246 -5.365 1.120
-5.224 -5.857 0.634
-4.661 -5.348 0.684
-5.224 -5.857 0.634
-5.224 -5.857 0.634
-5.224 -5.857 0.634
-5.224 -5.505 0.282
-5.224 -5.506 0.283
-4.255 -4.804 0.550
-4.990 -5.177 0.183
-4.990 -5.177 0.183
-4.990 -5.177 0.183
-4.990 -5.177 0.183
-5.399 -5.866 0.467
-5.068 -5.224 0.155
-5.068 -5.224 0.155
-3.769 -4.677 0.909
-5.223 -5.858 0.635
-4.109 -5.338 1.230
-4.572 -5.062 0.490
-3.805 -5.097 1.293
-3.931 -3.776 -0.155
-5.306 -5.237 -0.067
-5.415 -5.855 0.440
-3.974 -5.402 1.429
-3.974 -5.402 1.429
-4.209 -4.815 0.607
-4.209 -4.815 0.607
-4.209 -4.815 0.607
-3.934 -3.776 -0.158
-3.781 -4.684 0.904
-3.953 -3.773 -0.180
-5.237 -5.844 0.608
-5.237 -5.844 0.608
-3.979 -5.151 1.173
-4.146 -5.358 1.214
-4.146 -5.358 1.214
-4.146 -5.358 1.214
-4.146 -5.358 1.214
-4.146 -5.358 1.214
-4.146 -5.358 1.214
-4.660 -5.349 0.687
-4.660 -5.349 0.687
-4.660 -5.349 0.687
-4.660 -5.349 0.687
-4.660 -5.349 0.687
-5.239 -5.847 0.608
-5.239 -5.847 0.608
-5.239 -5.847 0.608
-5.239 -5.847 0.608
-4.104 -5.339 1.236
-4.104 -5.339 1.236
-5.240 -5.847 0.608
-5.240 -5.847 0.608
-5.240 -5.847 0.608
-5.240 -5.847 0.608
-5.240 -5.847 0.608
-5.240 -5.847 0.608
-4.660 -5.349 0.687
-5.239 -5.847 0.608
-5.239 -5.847 0.608
-5.239 -5.847 0.608
-4.280 -4.805 0.526
-5.239 -5.847 0.608
-4.660 -5.349 0.687
-4.461 -5.335 0.872
-4.660 -5.349 0.687
-3.808 -4.685 0.877
-3.808 -4.685 0.877
-3.808 -4.685 0.877
-3.808 -4.685 0.877
-3.808 -4.685 0.877
-3.808 -4.685 0.877
-3.808 -4.685 0.877
-5.073 -5.626 0.551
-4.461 -5.335 0.872
-4.461 -5.335 0.872
-4.461 -5.335 0.872
-4.461 -5.335 0.872
-4.461 -5.335 0.872
-5.240 -5.847 0.608
-5.240 -5.847 0.608
-4.459 -5.335 0.874
-4.459 -5.335 0.874
-4.459 -5.335 0.874
-4.660 -5.349 0.687
-4.660 -5.349 0.687
-4.660 -5.349 0.687
-5.414 -5.857 0.443
-4.261 -4.805 0.545
-3.822 -5.089 1.269
-3.822 -5.089 1.268
-3.822 -5.089 1.268
-4.271 -4.800 0.530
-4.271 -4.800 0.530
-4.271 -4.800 0.530
-3.947 -3.773 -0.174
-3.947 -3.773 -0.174
-3.947 -3.773 -0.174
-3.947 -3.773 -0.174
-5.414 -5.857 0.442
-5.414 -5.857 0.442
-5.414 -5.857 0.442
-5.240 -5.847 0.608
-5.041 -5.622 0.580
-5.422 -5.855 0.433
-5.244 -5.846 0.603
-4.660 -5.349 0.687
-5.246 -5.511 0.266
-5.246 -5.510 0.265
-5.246 -5.511 0.266
-5.073 -5.626 0.552
-4.173 -5.362 1.190
-4.261 -4.805 0.545
-4.261 -4.805 0.545
-5.240 -5.847 0.608
-5.240 -5.847 0.608
-5.240 -5.847 0.608
-5.240 -5.847 0.608
-5.239 -5.847 0.609
-5.239 -5.847 0.609
-5.239 -5.847 0.609
-5.239 -5.847 0.609
-5.239 -5.847 0.609
-4.271 -4.800 0.530
-5.414 -5.857 0.442
-5.041 -5.622 0.579
-4.147 -5.358 1.211
-5.240 -5.847 0.608
-4.168 -5.026 0.859
-4.168 -5.026 0.859
-4.168 -5.026 0.859
-4.105 -5.339 1.235
-4.105 -5.339 1.235
-5.073 -5.626 0.551
-4.261 -4.805 0.545
-4.105 -5.339 1.235
-4.105 -5.339 1.235
-4.105 -5.339 1.235
-4.105 -5.339 1.235
-4.105 -5.339 1.235
-4.105 -5.339 1.235
-4.105 -5.339 1.235
-4.105 -5.339 1.235
-5.305 -5.239 -0.065
-5.379 -5.071 -0.307
-5.484 -5.096 -0.387
-5.484 -5.096 -0.387
-5.484 -5.096 -0.387
-5.366 -5.052 -0.314
-4.040 -5.327 1.288
-4.461 -5.335 0.872
-4.147 -5.358 1.213
-4.147 -5.358 1.213
-4.147 -5.358 1.213
-4.147 -5.358 1.213
-4.147 -5.358 1.213
-4.147 -5.358 1.213
-4.147 -5.358 1.213
-4.147 -5.358 1.213
-5.241 -5.846 0.606
-4.279 -4.805 0.527
-4.279 -4.805 0.527
-4.279 -4.805 0.527
-4.279 -4.805 0.527
-5.240 -5.846 0.607
-5.240 -5.846 0.607
-3.635 -4.443 0.809
-4.147 -5.358 1.213
-5.043 -5.622 0.578
-5.043 -5.622 0.578
-4.175 -5.362 1.188
-5.241 -5.846 0.606
-4.108 -5.339 1.232
-4.148 -5.358 1.211
-4.108 -5.339 1.232
-5.234 -5.804 0.570
-5.241 -5.846 0.606
-4.148 -5.358 1.211
-4.148 -5.358 1.211
-5.241 -5.841 0.601
-5.241 -5.846 0.606
-5.241 -5.846 0.606
-5.414 -5.857 0.442
-5.414 -5.857 0.442
-4.266 -4.798 0.533
-4.460 -5.335 0.874
-4.460 -5.335 0.874
-4.460 -5.335 0.874
-4.460 -5.335 0.874
-4.460 -5.335 0.874
-4.460 -5.335 0.874
-4.460 -5.335 0.874
-4.460 -5.335 0.874
-4.460 -5.335 0.874
-4.460 -5.335 0.874
-4.460 -5.335 0.874
-4.460 -5.335 0.874
-4.460 -5.335 0.874
-4.460 -5.335 0.874
-4.460 -5.335 0.874
-4.460 -5.335 0.874
-4.271 -4.800 0.529
-3.859 -4.691 0.833
-3.859 -4.691 0.833
-3.859 -4.691 0.833
-3.859 -4.691 0.833
-3.859 -4.691 0.833
-3.859 -4.692 0.833
-5.240 -5.847 0.608
-5.240 -5.847 0.608
-5.240 -5.847 0.608
-5.240 -5.847 0.608
-5.240 -5.847 0.608
-5.305 -5.239 -0.065
-5.305 -5.239 -0.065
-5.305 -5.239 -0.065
-5.305 -5.239 -0.065
-5.237 -5.845 0.608
-5.237 -5.845 0.608
-4.250 -4.807 0.558
-4.250 -4.807 0.558
-5.237 -5.845 0.608
-4.309 -4.806 0.499
-4.309 -4.806 0.499
-5.378 -5.071 -0.307
-4.247 -4.807 0.561
-5.035 -5.624 0.588
-5.237 -5.845 0.608
-5.035 -5.624 0.588
-4.271 -4.800 0.529
-5.073 -5.626 0.551
-4.461 -5.335 0.872
-4.461 -5.335 0.872
-4.461 -5.335 0.872
-4.461 -5.335 0.872
-4.461 -5.335 0.872
-5.041 -5.622 0.580
-5.041 -5.622 0.580
-5.041 -5.622 0.580
-5.041 -5.622 0.580
-5.041 -5.622 0.580
-5.414 -5.857 0.442
-5.240 -5.847 0.608
-5.154 -5.906 0.752
-5.154 -5.906 0.752
-5.144 -5.632 0.487
-4.112 -5.340 1.229
-4.149 -5.358 1.211
-4.149 -5.358 1.210
-4.149 -5.358 1.211
-4.460 -5.335 0.873
-4.034 -5.322 1.286
-4.274 -4.800 0.527
-4.274 -4.800 0.527
-4.274 -4.800 0.527
-4.274 -4.800 0.527
-3.942 -3.775 -0.167
-4.013 -5.169 1.157
-4.460 -5.335 0.874
-4.460 -5.335 0.874
-4.460 -5.335 0.874
-4.460 -5.335 0.874
-4.460 -5.335 0.874
-4.460 -5.335 0.874
-4.460 -5.335 0.874
-5.414 -5.857 0.442
-4.271 -4.800 0.530
-4.271 -4.800 0.530
-4.271 -4.800 0.530
-5.042 -5.623 0.580
-5.042 -5.623 0.580
-5.042 -5.623 0.580
-5.042 -5.623 0.580
-5.042 -5.623 0.580
-5.042 -5.623 0.580
-5.240 -5.847 0.608
-5.042 -5.623 0.580
-5.042 -5.623 0.580
-5.042 -5.623 0.580
-5.042 -5.623 0.580
-4.034 -5.322 1.286
-5.073 -5.626 0.551
-4.262 -4.805 0.544
-5.240 -5.847 0.608
-5.240 -5.847 0.608
-5.042 -5.622 0.579
-5.005 -5.171 0.163
-4.042 -5.237 1.195
-5.075 -5.626 0.550
-4.262 -4.805 0.543
-4.262 -4.805 0.543
-5.240 -5.847 0.607
-4.262 -4.805 0.543
-4.262 -4.805 0.543
-5.043 -5.622 0.578
-5.240 -5.847 0.607
-5.043 -5.622 0.578
-5.043 -5.622 0.578
-5.043 -5.622 0.578
-5.043 -5.622 0.578
-5.043 -5.622 0.578
-5.043 -5.622 0.578
-5.043 -5.622 0.578
-5.043 -5.622 0.578
-4.034 -5.322 1.286
-4.034 -5.322 1.286
-5.043 -5.622 0.578
-5.043 -5.622 0.578
-5.043 -5.622 0.578
-5.305 -5.239 -0.065
-4.156 -5.346 1.191
-5.240 -5.847 0.607
-5.240 -5.847 0.607
-5.240 -5.847 0.607
-3.824 -5.089 1.267
-5.041 -5.623 0.580
-5.041 -5.623 0.580
-5.041 -5.623 0.580
-5.041 -5.623 0.580
-5.041 -5.623 0.580
-5.138 -5.227 0.088
-5.418 -5.856 0.437
-5.138 -5.227 0.088
-5.138 -5.227 0.088
-5.240 -5.847 0.607
-5.043 -5.622 0.578
-5.241 -5.846 0.606
-5.240 -5.847 0.607
-5.240 -5.847 0.607
-5.240 -5.847 0.607
-5.240 -5.847 0.607
-5.249 -5.849 0.600
-5.075 -5.626 0.550
-5.249 -5.849 0.600
-5.043 -5.622 0.578
-5.240 -5.847 0.607
-5.043 -5.622 0.578
-5.043 -5.622 0.578
-5.240 -5.847 0.607
-5.043 -5.622 0.578
-5.075 -5.626 0.550
-5.075 -5.626 0.550
-5.075 -5.626 0.550
-5.075 -5.626 0.550
-5.659 -5.586 -0.073
-5.663 -5.585 -0.078
-5.663 -5.585 -0.078
-5.663 -5.585 -0.078
-5.663 -5.585 -0.078
-5.663 -5.585 -0.078
-5.652 -5.583 -0.069
-5.652 -5.583 -0.069
-5.412 -5.857 0.444
-5.516 -6.031 0.511
-5.516 -6.031 0.511
-5.516 -6.031 0.511
-5.516 -6.031 0.511
-5.516 -6.031 0.511
-5.663 -5.585 -0.078
-5.663 -5.585 -0.078
-5.516 -6.031 0.511
-5.663 -5.585 -0.078
-5.663 -5.585 -0.078
-5.663 -5.585 -0.078
-5.663 -5.585 -0.078
-5.663 -5.585 -0.078
-5.663 -5.585 -0.078
-5.663 -5.585 -0.078
-5.663 -5.585 -0.078
-5.663 -5.585 -0.078
-4.806 -5.257 0.452
-4.081 -4.793 0.711
-4.081 -4.793 0.711
-5.803 -6.035 0.228
-5.803 -6.035 0.228
-5.815 -6.035 0.217
-5.815 -6.035 0.217
-4.080 -4.793 0.712
-5.809 -6.035 0.222
-5.815 -6.035 0.217
-5.809 -6.035 0.222
-5.809 -6.035 0.222
-5.809 -6.035 0.222
-5.809 -6.035 0.222
-5.809 -6.035 0.222
-5.809 -6.035 0.222
-5.659 -5.586 -0.073
-4.080 -4.793 0.712
-4.080 -4.793 0.712
-5.652 -5.583 -0.068
-5.652 -5.583 -0.068
-5.652 -5.583 -0.068
-5.652 -5.583 -0.068
-5.652 -5.583 -0.068
-5.815 -6.035 0.216
-5.815 -6.035 0.216
-5.652 -5.583 -0.068
-5.652 -5.583 -0.068
-5.652 -5.583 -0.068
-5.652 -5.583 -0.068
-5.809 -6.035 0.222
-5.809 -6.035 0.222
-5.809 -6.035 0.222
-5.809 -6.035 0.222
-5.809 -6.035 0.222
-5.809 -6.035 0.222
-5.809 -6.035 0.222
-5.809 -6.035 0.222
-5.652 -5.583 -0.068
-4.817 -5.256 0.440
-5.652 -5.583 -0.068
-5.652 -5.583 -0.068
-5.652 -5.583 -0.068
-5.652 -5.583 -0.068
-5.434 -5.860 0.426
-5.434 -5.860 0.426
-5.809 -6.035 0.222
-5.434 -5.860 0.426
-5.434 -5.860 0.426
-5.434 -5.860 0.426
-5.434 -5.860 0.426
-5.434 -5.860 0.426
-5.434 -5.860 0.426
-5.434 -5.860 0.426
-5.815 -6.035 0.216
-4.817 -5.256 0.440
-5.412 -5.856 0.445
-5.434 -5.860 0.426
-5.434 -5.860 0.426
-5.434 -5.860 0.426
-5.434 -5.860 0.426
-5.434 -5.860 0.426
-5.652 -5.583 -0.068
-5.652 -5.583 -0.068
-5.652 -5.583 -0.068
-4.115 -4.784 0.668
-4.115 -4.784 0.668
-5.815 -6.035 0.216
-5.815 -6.035 0.217
-5.815 -6.035 0.216
-5.815 -6.035 0.217
-5.815 -6.035 0.216
-5.815 -6.035 0.216
-5.815 -6.035 0.217
-5.516 -6.031 0.510
-5.434 -5.860 0.426
-4.819 -5.260 0.443
-4.819 -5.260 0.443
-4.819 -5.260 0.443
-5.815 -6.035 0.216
-4.115 -4.784 0.668
-5.434 -5.860 0.426
-5.815 -6.035 0.217
-5.815 -6.035 0.217
-5.815 -6.035 0.216
-5.815 -6.035 0.216
-5.815 -6.035 0.217
-5.815 -6.035 0.216
-5.815 -6.035 0.217
-5.815 -6.035 0.217
-5.434 -5.860 0.426
-5.434 -5.860 0.426
-5.434 -5.860 0.426
-5.434 -5.860 0.426
-5.435 -5.859 0.424
-5.435 -5.859 0.424
-5.657 -5.586 -0.070
-5.803 -6.036 0.229
-5.803 -6.036 0.229
-5.803 -6.036 0.229
-5.500 -6.030 0.526
-5.649 -5.583 -0.065
-5.803 -6.036 0.229
-5.803 -6.036 0.229
-5.803 -6.036 0.229
-5.803 -6.036 0.229
-5.803 -6.036 0.229
-5.803 -6.036 0.229
-5.435 -5.859 0.424
-5.661 -5.586 -0.075
-5.661 -5.586 -0.075
-5.435 -5.859 0.424
-5.661 -5.586 -0.075
-5.661 -5.586 -0.075
-5.661 -5.586 -0.075
-5.661 -5.586 -0.075
-5.435 -5.859 0.424
-4.077 -4.801 0.723
-5.657 -5.586 -0.070
-5.657 -5.586 -0.070
-5.413 -5.855 0.442
-5.657 -5.587 -0.070
-4.807 -5.260 0.454
-5.652 -5.586 -0.066
-4.807 -5.260 0.454
-5.652 -5.586 -0.066
-5.661 -5.586 -0.074
-5.661 -5.586 -0.074
-5.661 -5.586 -0.074
-4.817 -5.256 0.440
-5.803 -6.036 0.229
-5.803 -6.036 0.229
-5.649 -5.583 -0.065
-5.661 -5.586 -0.074
-5.661 -5.586 -0.074
-5.661 -5.586 -0.074
-5.661 -5.586 -0.074
-4.403 -5.417 1.015
-4.403 -5.417 1.015
-4.829 -5.252 0.424
-4.829 -5.252 0.424
-4.829 -5.252 0.424
-4.829 -5.252 0.424
-5.660 -5.586 -0.074
-5.803 -6.036 0.229
-5.660 -5.586 -0.074
-5.803 -6.036 0.229
-5.656 -5.586 -0.070
-4.076 -4.800 0.723
-4.829 -5.252 0.425
-4.829 -5.252 0.425
-5.656 -5.586 -0.070
-5.656 -5.586 -0.070
-5.435 -5.859 0.424
-5.660 -5.586 -0.074
-4.740 -5.247 0.508
-4.076 -4.800 0.723
-5.435 -5.859 0.424
-5.660 -5.586 -0.074
-5.660 -5.586 -0.074
-5.803 -6.036 0.229
-5.660 -5.586 -0.074
-5.660 -5.586 -0.074
-5.660 -5.586 -0.074
-5.660 -5.586 -0.074
-5.803 -6.036 0.229
-5.660 -5.586 -0.074
-5.803 -6.036 0.229
-5.803 -6.036 0.229
-5.803 -6.036 0.229
-4.403 -5.417 1.015
-4.362 -5.251 0.890
-4.403 -5.417 1.015
-4.403 -5.417 1.015
-4.403 -5.417 1.015
-4.403 -5.417 1.015
-4.403 -5.417 1.015
-4.362 -5.251 0.890
-4.362 -5.251 0.890
-4.403 -5.417 1.015
-4.362 -5.251 0.890
-4.362 -5.251 0.890
-4.403 -5.417 1.015
-5.648 -5.583 -0.065
-5.413 -5.855 0.443
-4.076 -4.800 0.723
-4.728 -5.247 0.520
-4.728 -5.247 0.520
-4.728 -5.246 0.520
-4.728 -5.246 0.520
-4.728 -5.247 0.520
-5.648 -5.583 -0.065
-5.648 -5.583 -0.065
-5.648 -5.583 -0.065
-4.740 -5.247 0.508
-4.829 -5.252 0.424
-5.803 -6.036 0.229
-4.750 -5.246 0.497
-4.750 -5.246 0.497
-4.750 -5.246 0.497
-4.750 -5.246 0.497
-4.750 -5.246 0.497
-5.640 -5.584 -0.056
-4.829 -5.252 0.424
-4.750 -5.246 0.497
-5.797 -6.036 0.234
-5.803 -6.036 0.229
-5.797 -6.036 0.234
-5.797 -6.036 0.234
-5.797 -6.036 0.234
-5.648 -5.583 -0.065
-5.648 -5.583 -0.065
-5.648 -5.583 -0.065
-5.660 -5.586 -0.074
-5.660 -5.586 -0.074
-4.403 -5.417 1.015
-4.403 -5.417 1.015
-4.403 -5.417 1.015
-4.740 -5.247 0.508
-4.740 -5.247 0.508
-4.740 -5.247 0.508
-4.740 -5.247 0.508
-4.740 -5.247 0.508
-5.803 -6.036 0.229
-5.803 -6.036 0.229
-5.660 -5.586 -0.074
-5.660 -5.586 -0.074
-5.640 -5.584 -0.056
-4.807 -5.252 0.446
-4.363 -5.251 0.889
-4.363 -5.251 0.889
-4.363 -5.251 0.889
-4.363 -5.251 0.889
-4.363 -5.251 0.889
-4.363 -5.251 0.889
-4.363 -5.251 0.889
-5.648 -5.583 -0.065
-5.648 -5.583 -0.065
-5.648 -5.583 -0.065
-5.656 -5.586 -0.070
-4.829 -5.252 0.424
-4.829 -5.252 0.424
-4.829 -5.252 0.424
-5.640 -5.584 -0.056
-5.640 -5.584 -0.056
-5.494 -6.029 0.531
-5.640 -5.584 -0.056
-5.640 -5.584 -0.056
-5.640 -5.584 -0.056
-5.640 -5.584 -0.056
-5.640 -5.584 -0.056
-5.640 -5.584 -0.056
-5.640 -5.584 -0.056
-5.640 -5.584 -0.056
-5.413 -5.855 0.443
-5.413 -5.855 0.442
-5.803 -6.036 0.229
-5.803 -6.036 0.229
-5.803 -6.036 0.229
-5.803 -6.036 0.229
-5.803 -6.036 0.229
-5.660 -5.586 -0.074
-5.660 -5.586 -0.074
-5.660 -5.586 -0.074
-5.660 -5.586 -0.074
-5.660 -5.586 -0.074
-4.750 -5.246 0.497
-4.750 -5.246 0.497
-4.363 -5.251 0.889
-4.403 -5.417 1.015
-4.363 -5.251 0.889
-4.363 -5.251 0.889
-5.660 -5.586 -0.074
-5.660 -5.586 -0.074
-4.750 -5.246 0.497
-4.527 -5.416 0.890
-5.413 -5.855 0.442
-5.803 -6.036 0.229
-5.803 -6.036 0.229
-4.829 -5.252 0.425
-4.728 -5.247 0.520
-5.797 -6.036 0.234
-5.797 -6.036 0.234
-5.660 -5.586 -0.074
-5.660 -5.586 -0.074
-5.660 -5.586 -0.074
-5.660 -5.586 -0.074
-5.660 -5.586 -0.074
-5.660 -5.586 -0.074
-5.660 -5.586 -0.074
-5.660 -5.586 -0.074
-5.660 -5.586 -0.074
-5.660 -5.586 -0.074
-5.803 -6.036 0.229
-5.660 -5.586 -0.074
-4.362 -5.251 0.890
-4.362 -5.251 0.890
-4.362 -5.251 0.890
-4.362 -5.251 0.890
-4.362 -5.251 0.890
-4.362 -5.251 0.890
-5.660 -5.586 -0.074
-5.494 -6.029 0.531
-5.494 -6.030 0.531
-5.494 -6.029 0.531
-5.494 -6.029 0.531
-5.494 -6.029 0.531
-5.494 -6.029 0.531
-4.403 -5.417 1.015
-5.640 -5.584 -0.056
-4.806 -5.253 0.447
-5.660 -5.586 -0.074
-5.660 -5.586 -0.074
-5.660 -5.586 -0.074
-5.660 -5.586 -0.074
-5.661 -5.586 -0.075
-5.723 -6.022 0.295
-5.661 -5.586 -0.074
-5.661 -5.586 -0.074
-4.504 -5.416 0.913
-4.504 -5.416 0.913
-4.504 -5.416 0.913
-4.504 -5.416 0.913
-4.403 -5.417 1.015
-5.640 -5.584 -0.056
-5.648 -5.583 -0.065
-5.648 -5.583 -0.065
-5.648 -5.583 -0.065
-5.656 -5.586 -0.070
-4.362 -5.251 0.890
-5.660 -5.586 -0.074
-5.660 -5.586 -0.074
-5.660 -5.586 -0.074
-5.660 -5.586 -0.074
-5.660 -5.586 -0.074
-5.660 -5.586 -0.074
-5.660 -5.586 -0.074
-5.803 -6.036 0.229
-4.527 -5.416 0.890
-5.640 -5.584 -0.056
-4.527 -5.416 0.890
-5.660 -5.586 -0.074
-5.797 -6.036 0.234
-4.829 -5.252 0.424
-5.648 -5.583 -0.065
-5.648 -5.583 -0.065
-5.660 -5.586 -0.074
-5.660 -5.586 -0.074
-5.660 -5.586 -0.074
-5.660 -5.586 -0.074
-4.362 -5.251 0.890
-4.362 -5.251 0.890
-4.362 -5.251 0.890
-4.362 -5.251 0.890
-4.362 -5.251 0.890
-4.337 -5.263 0.927
-4.362 -5.251 0.890
-4.829 -5.252 0.424
-4.363 -5.251 0.889
-4.807 -5.252 0.446
-4.807 -5.252 0.446
-4.807 -5.252 0.446
-4.440 -5.258 0.819
-4.337 -5.263 0.927
-4.403 -5.417 1.015
-5.660 -5.586 -0.074
-4.829 -5.252 0.424
-4.829 -5.252 0.424
-4.829 -5.252 0.424
-4.829 -5.252 0.424
-4.829 -5.252 0.424
-5.797 -6.036 0.235
-5.797 -6.036 0.234
-5.797 -6.036 0.234
-5.656 -5.586 -0.070
-4.527 -5.416 0.890
-4.527 -5.416 0.890
-4.527 -5.416 0.890
-4.829 -5.252 0.424
-5.660 -5.586 -0.074
-4.527 -5.416 0.890
-5.494 -6.029 0.531
-5.729 -6.021 0.288
-5.729 -6.021 0.288
-5.729 -6.021 0.288
-5.724 -6.021 0.294
-5.724 -6.021 0.294
-4.403 -5.417 1.015
-5.729 -6.021 0.288
-5.729 -6.021 0.288
-5.729 -6.021 0.288
-5.729 -6.021 0.289
-4.818 -5.253 0.436
-4.818 -5.253 0.436
-5.648 -5.583 -0.065
-4.806 -5.253 0.447
-4.467 -5.407 0.942
-4.403 -5.417 1.015
-5.803 -6.036 0.229
-5.724 -6.021 0.294
-5.724 -6.021 0.294
-5.724 -6.021 0.294
-5.640 -5.584 -0.056
-5.656 -5.586 -0.070
-5.656 -5.586 -0.070
-5.656 -5.586 -0.070
-5.656 -5.586 -0.070
-5.656 -5.586 -0.070
-4.829 -5.252 0.424
-4.829 -5.252 0.424
-4.829 -5.252 0.424
-4.750 -5.246 0.497
-4.750 -5.246 0.497
-5.656 -5.586 -0.070
-5.656 -5.586 -0.070
-4.750 -5.246 0.497
-5.656 -5.586 -0.070
-4.750 -5.246 0.497
-4.750 -5.246 0.497
-5.656 -5.586 -0.070
-5.656 -5.586 -0.070
-4.750 -5.246 0.497
-5.656 -5.586 -0.070
-5.656 -5.586 -0.070
-4.750 -5.246 0.497
-5.656 -5.586 -0.070
-5.656 -5.586 -0.070
-5.656 -5.586 -0.070
-5.656 -5.586 -0.070
-5.656 -5.586 -0.070
-5.656 -5.586 -0.070
-5.656 -5.586 -0.070
-5.656 -5.586 -0.070
-5.656 -5.586 -0.070
-5.656 -5.586 -0.070
-5.656 -5.586 -0.070
-5.656 -5.586 -0.070
-5.656 -5.586 -0.070
-5.656 -5.586 -0.070
-5.656 -5.586 -0.070
-5.729 -6.021 0.289
-4.466 -5.406 0.941
-4.466 -5.406 0.941
-4.466 -5.406 0.941
-5.729 -6.021 0.289
-4.466 -5.406 0.941
-5.494 -6.029 0.531
-5.648 -5.583 -0.065
-5.046 -4.988 -0.058
-5.046 -4.988 -0.058
-5.046 -4.988 -0.058
-5.046 -4.988 -0.058
-5.046 -4.988 -0.058
-5.875 -5.272 -0.603
-5.573 -5.281 -0.293
-5.573 -5.281 -0.293
-4.430 -5.137 0.707
-5.144 -4.972 -0.172
-5.580 -5.281 -0.299
-3.328 -4.089 0.762
-4.188 -4.813 0.626
-5.882 -5.272 -0.610
-4.652 -5.348 0.694
-4.652 -5.348 0.694
-4.652 -5.348 0.694
-4.652 -5.348 0.694
-4.652 -5.348 0.694
-4.600 -5.346 0.744
-4.652 -5.348 0.693
-4.652 -5.348 0.693
-5.144 -4.972 -0.172
-4.858 -5.039 0.181
-4.858 -5.039 0.181
-4.858 -5.039 0.181
-4.858 -5.039 0.181
-4.858 -5.039 0.181
-4.858 -5.039 0.181
-4.858 -5.039 0.181
-4.653 -5.348 0.693
-3.633 -4.581 0.948
-5.144 -4.972 -0.173
-4.858 -5.039 0.180
-4.858 -5.039 0.180
-4.164 -5.023 0.860
-4.206 -4.813 0.608
-4.164 -5.023 0.860
-4.206 -4.813 0.608
-4.164 -5.023 0.860
-4.164 -5.023 0.860
-4.858 -5.038 0.180
-5.882 -5.272 -0.610
-5.882 -5.272 -0.610
-4.363 -5.173 0.812
-4.363 -5.173 0.812
-4.363 -5.173 0.812
-4.363 -5.173 0.812
-4.363 -5.173 0.812
-4.098 -5.162 1.066
-4.098 -5.162 1.066
-4.653 -5.348 0.693
-4.037 -5.320 1.282
-4.653 -5.348 0.693
-4.459 -5.333 0.872
-4.738 -5.077 0.339
-4.738 -5.077 0.339
-4.738 -5.077 0.339
-5.298 -5.352 0.054
-5.882 -5.272 -0.610
-5.882 -5.272 -0.610
-4.097 -5.162 1.066
-4.194 -5.287 1.090
-4.097 -5.162 1.066
-4.194 -5.287 1.090
-4.212 -4.807 0.597
-4.399 -5.140 0.742
-4.415 -5.180 0.766
-4.415 -5.180 0.766
-4.415 -5.180 0.766
-4.438 -5.334 0.894
-5.144 -4.972 -0.173
-5.144 -4.972 -0.173
-5.144 -4.972 -0.173
-4.600 -5.346 0.744
-4.858 -5.039 0.180
-4.858 -5.039 0.180
-4.416 -5.180 0.765
-4.741 -5.076 0.335
-4.741 -5.076 0.335
-4.459 -5.333 0.872
-4.459 -5.333 0.872
-4.459 -5.333 0.872
-4.459 -5.333 0.872
-4.459 -5.333 0.872
-4.459 -5.333 0.872
-4.144 -5.280 1.133
-4.164 -5.023 0.859
-4.155 -5.028 0.873
-4.664 -5.081 0.417
-4.419 -5.181 0.764
-4.419 -5.181 0.764
-4.419 -5.181 0.764
-4.419 -5.181 0.764
-4.049 -5.323 1.272
-4.049 -5.323 1.272
-5.421 -5.348 -0.073
-5.421 -5.348 -0.073
-5.421 -5.348 -0.073
-5.421 -5.348 -0.073
-4.418 -5.181 0.765
-4.329 -5.154 0.826
-4.293 -5.159 0.866
-3.594 -4.541 0.947
-4.762 -5.061 0.299
-4.762 -5.061 0.299
-4.050 -5.320 1.268
-3.594 -4.541 0.947
-3.594 -4.541 0.947
-3.594 -4.541 0.947
-3.594 -4.541 0.947
-3.594 -4.541 0.947
-3.594 -4.541 0.948
-3.594 -4.541 0.947
-3.594 -4.541 0.947
-3.594 -4.541 0.947
-3.594 -4.541 0.947
-4.100 -5.163 1.065
-5.120 -5.355 0.234
-4.762 -5.061 0.299
-4.762 -5.061 0.299
-4.762 -5.061 0.299
-4.173 -4.780 0.608
-4.762 -5.061 0.299
-4.458 -5.336 0.877
-5.876 -5.273 -0.604
-4.191 -5.285 1.090
-4.191 -5.285 1.090
-4.410 -5.179 0.771
-4.410 -5.179 0.771
-4.410 -5.179 0.771
-4.410 -5.179 0.771
-4.410 -5.179 0.771
-4.410 -5.179 0.771
-4.444 -5.334 0.889
-4.357 -5.173 0.817
-4.183 -4.811 0.628
-4.396 -5.141 0.745
-4.396 -5.141 0.745
-4.396 -5.141 0.745
-4.396 -5.141 0.745
-4.396 -5.141 0.745
-4.396 -5.141 0.745
-4.396 -5.141 0.745
-4.396 -5.141 0.745
-4.396 -5.141 0.745
-4.396 -5.141 0.745
-4.396 -5.141 0.745
-4.396 -5.141 0.745
-4.396 -5.141 0.745
-4.045 -5.150 1.107
-4.192 -5.285 1.090
-4.092 -5.162 1.071
-4.192 -5.285 1.090
-4.092 -5.162 1.071
-3.587 -4.541 0.954
-3.587 -4.541 0.954
-3.587 -4.541 0.954
-3.587 -4.541 0.954
-3.587 -4.541 0.954
-3.587 -4.541 0.954
-3.587 -4.541 0.954
-3.587 -4.541 0.954
-3.587 -4.541 0.954
-3.587 -4.541 0.954
-3.587 -4.541 0.954
-4.738 -5.077 0.339
-4.738 -5.077 0.339
-4.738 -5.077 0.339
-4.399 -5.140 0.741
-4.855 -5.039 0.185
-3.590 -4.537 0.948
-4.398 -5.141 0.742
-4.043 -5.320 1.275
-4.043 -5.320 1.275
-4.043 -5.320 1.275
-5.290 -5.352 0.061
-5.290 -5.352 0.061
-4.142 -5.279 1.133
-4.983 -5.358 0.374
-3.590 -4.537 0.948
-4.396 -5.141 0.745
-5.164 -5.332 0.167
-4.738 -5.077 0.339
-4.738 -5.077 0.339
-3.590 -4.537 0.948
-4.465 -5.333 0.866
-4.465 -5.333 0.866
-4.188 -4.814 0.626
-4.465 -5.333 0.867
-4.465 -5.333 0.867
-3.590 -4.537 0.948
-4.398 -5.141 0.743
-5.291 -5.352 0.061
-5.291 -5.352 0.061
-5.291 -5.352 0.061
-5.291 -5.352 0.061
-5.291 -5.352 0.061
-4.738 -5.077 0.339
-4.738 -5.077 0.339
-4.023 -5.321 1.296
-4.983 -5.358 0.374
-4.983 -5.358 0.374
-4.738 -5.077 0.339
-4.092 -5.162 1.071
-4.092 -5.162 1.071
-4.092 -5.162 1.071
-5.144 -4.972 -0.172
-5.144 -4.972 -0.172
-4.444 -5.334 0.888
-4.400 -5.140 0.741
-4.741 -5.076 0.335
-4.741 -5.076 0.335
-4.741 -5.076 0.335
-4.410 -5.179 0.771
-4.045 -5.150 1.107
-4.045 -5.150 1.107
-4.045 -5.150 1.107
-3.553 -4.546 0.994
-4.741 -5.076 0.335
-4.741 -5.076 0.335
-3.553 -4.547 0.994
-4.741 -5.076 0.335
-4.741 -5.076 0.335
-3.587 -4.541 0.955
-3.587 -4.541 0.955
-4.092 -5.162 1.071
-4.410 -5.179 0.771
-5.293 -5.351 0.057
-3.948 -4.737 0.791
-4.444 -5.334 0.888
-5.293 -5.351 0.057
-4.741 -5.076 0.335
-4.741 -5.076 0.335
-4.741 -5.076 0.335
-5.144 -4.972 -0.172
-5.144 -4.972 -0.172
-3.586 -4.541 0.955
-4.466 -5.333 0.866
-4.466 -5.333 0.866
-4.741 -5.076 0.335
-4.741 -5.076 0.335
-4.741 -5.076 0.335