-8.120 -8.830 0.629
-8.135 -8.829 0.612
-8.846 -9.283 0.347
-8.846 -9.283 0.347
-8.846 -9.283 0.347
-8.846 -9.283 0.347
-8.846 -9.283 0.347
-8.846 -9.283 0.347
-8.846 -9.283 0.347
-8.846 -9.283 0.347
-8.846 -9.283 0.347
-8.846 -9.283 0.347
-8.846 -9.283 0.347
-8.846 -9.283 0.347
-8.846 -9.283 0.347
-8.777 -9.178 0.321
-8.777 -9.178 0.321
-8.668 -9.290 0.530
-8.846 -9.282 0.346
-8.846 -9.282 0.346
-8.846 -9.282 0.346
-8.846 -9.282 0.346
-8.173 -8.813 0.558
-8.173 -8.813 0.558
-8.846 -9.282 0.346
-8.846 -9.282 0.346
-8.846 -9.282 0.346
-8.846 -9.282 0.346
-8.846 -9.282 0.346
-8.846 -9.282 0.346
-8.846 -9.282 0.346
-8.846 -9.282 0.346
-8.846 -9.282 0.346
-8.846 -9.282 0.346
-8.846 -9.282 0.346
-8.173 -8.813 0.558
-8.846 -9.282 0.346
-8.846 -9.282 0.346
-8.846 -9.282 0.346
-8.846 -9.282 0.346
-8.846 -9.282 0.346
-8.846 -9.282 0.346
-8.846 -9.282 0.346
-8.846 -9.282 0.346
-8.668 -9.290 0.530
-8.777 -9.178 0.321
-8.777 -9.178 0.321
-8.668 -9.290 0.530
-8.668 -9.290 0.530
-8.173 -8.813 0.558
-8.173 -8.813 0.558
-8.173 -8.813 0.558
-8.173 -8.813 0.558
-8.173 -8.813 0.558
-8.173 -8.813 0.558
-7.886 -8.301 0.350
-8.553 -8.846 0.212
-8.553 -8.846 0.212
-8.847 -9.282 0.346
-8.669 -9.290 0.530
-8.669 -9.290 0.530
-8.669 -9.290 0.530
-8.780 -9.285 0.411
-8.558 -8.846 0.207
-8.558 -8.846 0.207
-8.847 -9.282 0.346
-8.899 -9.272 0.282
-8.745 -9.267 0.431
-8.917 -9.259 0.252
-8.917 -9.258 0.252
-8.556 -8.845 0.207
-8.177 -8.811 0.552
-8.177 -8.811 0.552
-8.556 -8.845 0.207
-8.917 -9.258 0.252
-8.917 -9.258 0.252
-8.209 -8.814 0.524
-8.917 -9.258 0.252
-8.848 -9.263 0.321
-8.848 -9.263 0.321
-8.848 -9.263 0.321
-8.848 -9.263 0.321
-8.204 -8.814 0.530
-8.562 -8.845 0.202
-8.562 -8.845 0.202
-8.562 -8.845 0.202
-8.162 -8.813 0.569
-8.848 -9.263 0.321
-8.781 -9.177 0.315
-8.562 -8.845 0.202
-8.738 -9.266 0.437
-7.897 -8.298 0.337
-7.897 -8.299 0.337
-7.897 -8.299 0.337
-7.897 -8.299 0.337
-7.897 -8.299 0.337
-8.162 -8.813 0.569
-8.562 -8.845 0.202
-8.562 -8.845 0.202
-8.562 -8.845 0.202
-8.562 -8.845 0.202
-8.781 -9.177 0.315
-8.917 -9.259 0.252
-8.917 -9.259 0.252
-8.917 -9.259 0.252
-8.917 -9.259 0.252
-8.557 -8.845 0.207
-8.162 -8.813 0.569
-7.897 -8.298 0.337
-8.848 -9.263 0.321
-8.557 -8.845 0.207
-8.557 -8.845 0.207
-8.917 -9.258 0.252
-8.917 -9.258 0.252
-8.162 -8.813 0.569
-8.781 -9.177 0.315
-8.738 -9.266 0.437
-8.738 -9.266 0.437
-8.162 -8.813 0.570
-8.562 -8.845 0.202
-8.562 -8.845 0.202
-8.848 -9.263 0.321
-8.781 -9.177 0.315
-8.557 -8.845 0.207
-8.557 -8.845 0.207
-8.557 -8.845 0.207
-8.162 -8.813 0.569
-8.162 -8.813 0.569
-8.162 -8.813 0.569
-8.162 -8.813 0.569
-8.162 -8.813 0.569
-8.162 -8.813 0.569
-8.162 -8.813 0.569
-8.162 -8.813 0.569
-8.162 -8.813 0.569
-8.738 -9.266 0.437
-8.562 -8.845 0.202
-8.738 -9.266 0.437
-8.738 -9.266 0.437
-8.162 -8.813 0.569
-8.162 -8.813 0.569
-8.562 -8.845 0.202
-8.562 -8.845 0.202
-8.562 -8.845 0.202
-8.746 -9.264 0.427
-8.746 -9.264 0.427
-8.178 -8.811 0.551
-8.204 -8.814 0.529
-8.165 -8.813 0.567
-8.165 -8.813 0.567
-8.165 -8.813 0.567
-8.165 -8.813 0.567
-8.165 -8.813 0.567
-8.165 -8.813 0.567
-8.165 -8.813 0.567
-8.562 -8.845 0.201
-8.562 -8.845 0.201
-8.562 -8.845 0.201
-8.562 -8.845 0.201
-8.923 -9.259 0.247
-8.746 -9.264 0.427
-8.782 -9.177 0.315
-8.782 -9.177 0.315
-8.923 -9.259 0.247
-8.781 -9.177 0.315
-8.164 -8.813 0.568
-8.204 -8.815 0.530
-8.746 -9.264 0.427
-8.744 -9.267 0.432
-8.178 -8.811 0.552
-8.178 -8.811 0.552
-8.164 -8.813 0.567
-8.746 -9.264 0.427
-8.746 -9.264 0.427
-8.746 -9.264 0.427
-8.746 -9.264 0.427
-8.746 -9.264 0.427
-8.746 -9.264 0.427
-8.744 -9.267 0.432
-8.744 -9.267 0.432
-8.204 -8.815 0.530
-8.204 -8.815 0.530
-8.204 -8.815 0.530
-8.746 -9.264 0.427
-8.746 -9.264 0.427
-8.744 -9.267 0.432
-8.744 -9.267 0.432
-8.744 -9.267 0.432
-7.907 -8.299 0.327
-8.744 -9.267 0.432
-7.907 -8.299 0.327
-8.744 -9.267 0.432
-8.744 -9.267 0.432
-8.204 -8.815 0.530
-8.744 -9.267 0.432
-8.744 -9.267 0.432
-8.781 -9.177 0.315
-8.557 -8.845 0.206
-8.744 -9.267 0.432
-8.744 -9.267 0.432
-8.744 -9.267 0.432
-8.165 -8.813 0.567
-8.923 -9.259 0.247
-8.923 -9.259 0.247
-8.923 -9.259 0.247
-8.178 -8.811 0.551
-8.178 -8.811 0.551
-7.329 -8.227 0.816
-8.165 -8.813 0.567
-8.746 -9.264 0.427
-8.746 -9.264 0.427
-8.744 -9.267 0.432
-7.907 -8.298 0.327
-8.923 -9.259 0.247
-8.873 -9.256 0.293
-8.557 -8.845 0.207
-8.164 -8.813 0.567
-8.164 -8.813 0.567
-8.164 -8.813 0.567
-8.146 -9.134 0.898
-8.146 -9.134 0.898
-8.146 -9.134 0.898
-8.782 -9.176 0.314
-8.145 -9.135 0.899
-8.781 -9.177 0.315
-8.770 -9.180 0.330
-8.770 -9.180 0.330
-8.770 -9.180 0.330
-8.770 -9.180 0.330
-8.770 -9.180 0.330
-8.123 -8.828 0.624
-8.034 -8.294 0.199
-8.777 -9.178 0.321
-8.558 -8.846 0.206
-8.558 -8.846 0.206
-8.777 -9.178 0.321
-8.140 -9.138 0.908
-8.669 -9.290 0.530
-8.777 -9.178 0.321
-8.174 -8.813 0.558
-8.205 -8.815 0.529
-8.669 -9.290 0.530
-8.669 -9.290 0.530
-8.558 -8.846 0.206
-8.677 -9.287 0.518
-8.777 -9.178 0.321
-8.201 -8.816 0.534
-8.554 -8.846 0.211
-8.175 -8.812 0.556
-8.161 -8.814 0.571
-8.161 -8.814 0.571
-8.201 -8.815 0.533
-8.201 -8.815 0.533
-8.201 -8.815 0.533
-8.554 -8.846 0.211
-8.554 -8.846 0.211
-8.554 -8.846 0.211
-8.852 -9.283 0.341
-8.279 -9.014 0.673
-8.022 -9.005 0.919
-8.022 -9.005 0.919
-8.022 -9.005 0.919
-8.782 -9.177 0.315
-8.782 -9.177 0.314
-8.076 -9.012 0.881
-8.164 -8.813 0.568
-8.745 -9.264 0.428
-8.745 -9.264 0.428
-8.745 -9.264 0.428
-7.907 -8.299 0.327
-8.562 -8.845 0.201
-8.204 -8.814 0.529
-8.204 -8.814 0.529
-8.204 -8.814 0.529
-8.743 -9.267 0.433
-8.562 -8.845 0.201
-7.907 -8.298 0.327
-7.907 -8.298 0.327
-8.743 -9.267 0.433
-8.743 -9.267 0.433
-7.907 -8.298 0.327
-8.146 -9.134 0.898
-8.872 -9.256 0.294
-8.178 -8.811 0.552
-8.178 -8.811 0.552
-8.164 -8.813 0.567
-8.164 -8.813 0.567
-8.164 -8.813 0.567
-8.164 -8.813 0.567
-8.742 -9.267 0.434
-8.742 -9.267 0.434
-8.742 -9.267 0.434
-8.742 -9.267 0.434
-8.742 -9.267 0.434
-8.742 -9.267 0.434
-8.742 -9.267 0.434
-8.742 -9.267 0.434
-7.907 -8.299 0.328
-8.742 -9.267 0.434
-8.781 -9.177 0.315
-8.781 -9.177 0.315
-8.781 -9.177 0.315
-8.781 -9.177 0.315
-8.781 -9.177 0.315
-8.781 -9.177 0.315
-8.744 -9.264 0.429
-8.744 -9.264 0.429
-8.744 -9.264 0.429
-8.744 -9.264 0.429
-8.744 -9.264 0.429
-8.562 -8.845 0.202
-8.164 -8.813 0.567
-8.146 -9.134 0.898
-8.204 -8.814 0.529
-7.906 -8.299 0.328
-8.178 -8.811 0.552
-8.178 -8.811 0.552
-8.178 -8.811 0.552
-7.906 -8.299 0.328
-8.742 -9.267 0.434
-8.164 -8.813 0.567
-8.742 -9.267 0.434
-8.744 -9.264 0.429
-8.744 -9.264 0.429
-8.744 -9.264 0.429
-8.744 -9.264 0.429
-8.744 -9.264 0.429
-8.744 -9.264 0.429
-8.744 -9.264 0.429
-8.742 -9.267 0.434
-8.562 -8.845 0.201
-8.178 -8.811 0.552
-8.178 -8.811 0.552
-8.742 -9.267 0.434
-8.742 -9.267 0.434
-8.178 -8.811 0.552
-8.704 -9.071 0.278
-8.848 -9.264 0.322
-8.848 -9.264 0.322
-8.848 -9.264 0.322
-8.744 -9.264 0.429
-8.165 -8.813 0.567
-8.744 -9.264 0.429
-8.744 -9.264 0.429
-8.165 -8.813 0.567
-8.165 -8.813 0.567
-7.907 -8.299 0.328
-8.742 -9.267 0.434
-7.907 -8.299 0.328
-8.562 -8.845 0.201
-7.906 -8.299 0.328
-8.744 -9.264 0.429
-8.076 -9.012 0.881
-8.076 -9.012 0.881
-8.076 -9.012 0.881
-8.744 -9.264 0.429
-8.744 -9.264 0.429
-8.744 -9.264 0.429
-8.178 -8.811 0.552
-8.562 -8.845 0.202
-8.744 -9.264 0.429
-8.744 -9.264 0.429
-8.744 -9.264 0.429
-8.178 -8.811 0.552
-8.744 -9.264 0.429
-8.744 -9.264 0.429
-8.744 -9.264 0.429
-8.744 -9.264 0.429
-8.744 -9.264 0.429
-8.744 -9.264 0.429
-8.164 -8.813 0.567
-8.076 -9.012 0.881
-8.562 -8.845 0.201
-7.906 -8.299 0.328
-8.744 -9.264 0.429
-8.744 -9.264 0.429
-8.744 -9.264 0.429
-8.076 -9.012 0.881
-8.076 -9.012 0.881
-8.742 -9.267 0.434
-8.742 -9.267 0.434
-8.744 -9.264 0.429
-8.588 -8.845 0.177
-8.742 -9.268 0.434
-8.744 -9.264 0.429
-8.744 -9.264 0.429
-8.744 -9.264 0.429
-8.146 -9.134 0.898
-8.146 -9.134 0.898
-8.178 -8.811 0.552
-8.742 -9.267 0.434
-8.742 -9.267 0.434
-8.164 -8.813 0.567
-8.781 -9.177 0.315
-8.782 -9.177 0.315
-8.076 -9.012 0.881
-8.178 -8.811 0.552
-8.022 -9.005 0.919
-8.022 -9.005 0.919
-8.164 -8.813 0.568
-8.742 -9.267 0.434
-8.164 -8.813 0.568
-7.906 -8.299 0.328
-8.073 -9.013 0.884
-8.742 -9.267 0.434
-8.742 -9.267 0.434
-7.906 -8.299 0.328
-8.742 -9.267 0.434
-8.742 -9.267 0.434
-8.742 -9.267 0.434
-8.076 -9.012 0.881
-8.076 -9.012 0.881
-8.145 -9.135 0.900
-7.906 -8.299 0.328
-8.145 -9.135 0.900
-8.742 -9.267 0.434
-8.164 -8.813 0.568
-8.744 -9.264 0.429
-8.744 -9.264 0.429
-8.744 -9.264 0.429
-7.906 -8.299 0.328
-8.164 -8.813 0.568
-8.164 -8.813 0.568
-7.906 -8.299 0.328
-8.076 -9.012 0.881
-8.076 -9.012 0.881
-8.076 -9.012 0.881
-8.742 -9.267 0.434
-8.818 -9.177 0.279
-8.744 -9.264 0.429
-8.145 -9.135 0.900
-8.145 -9.135 0.899
-8.744 -9.264 0.429
-8.022 -9.005 0.919
-8.145 -9.135 0.899
-7.906 -8.299 0.328
-7.906 -8.299 0.328
-7.906 -8.299 0.328
-7.906 -8.299 0.328
-8.164 -8.813 0.568
-8.164 -8.813 0.568
-7.906 -8.299 0.328
-8.744 -9.264 0.429
-8.744 -9.264 0.429
-8.744 -9.264 0.429
-8.744 -9.264 0.429
-8.744 -9.264 0.429
-8.781 -9.177 0.315
-8.145 -9.135 0.900
-8.145 -9.135 0.900
-8.770 -9.180 0.330
-8.161 -9.143 0.894
-8.096 -9.138 0.953
-8.846 -9.282 0.346
-7.886 -8.301 0.350
-8.012 -9.042 0.975
-8.676 -9.287 0.519
-8.676 -9.287 0.519
-8.161 -8.814 0.572
-8.161 -8.814 0.572
-8.161 -8.814 0.572
-8.161 -8.814 0.572
-8.103 -9.134 0.942
-8.103 -9.134 0.942
-7.896 -8.301 0.340
-8.141 -9.138 0.908
-8.141 -9.137 0.907
-8.175 -8.813 0.556
-8.161 -8.814 0.572
-8.161 -8.814 0.572
-7.896 -8.301 0.340
-8.012 -9.042 0.975
-8.778 -9.178 0.320
-8.103 -9.134 0.942
-8.103 -9.134 0.942
-8.102 -9.134 0.942
-8.102 -9.134 0.942
-8.067 -9.033 0.869
-8.102 -9.134 0.942
-8.141 -9.137 0.908
-8.674 -9.291 0.525
-8.206 -8.815 0.529
-8.067 -9.033 0.868
-8.102 -9.134 0.942
-8.067 -9.033 0.868
-8.067 -9.033 0.869
-8.161 -8.814 0.572
-8.012 -9.042 0.975
-8.674 -9.291 0.525
-7.896 -8.301 0.340
-7.896 -8.301 0.340
-7.896 -8.301 0.340
-8.141 -9.137 0.908
-8.102 -9.134 0.942
-8.161 -8.814 0.572
-8.161 -8.814 0.572
-8.102 -9.134 0.942
-8.161 -8.814 0.572
-8.674 -9.291 0.525
-8.674 -9.291 0.525
-8.024 -9.166 1.087
-8.009 -9.043 0.978
-8.676 -9.287 0.519
-8.674 -9.291 0.525
-8.175 -8.813 0.556
-8.141 -9.138 0.908
-8.175 -8.813 0.556
-6.928 -8.759 1.755
-7.896 -8.301 0.340
-7.896 -8.301 0.340
-7.896 -8.301 0.340
-7.896 -8.301 0.340
-7.896 -8.301 0.340
-8.103 -9.134 0.942
-8.068 -9.033 0.869
-8.674 -9.291 0.525
-8.674 -9.291 0.525
-8.674 -9.291 0.525
-8.674 -9.291 0.525
-8.778 -9.178 0.320
-8.103 -9.134 0.942
-8.103 -9.134 0.942
-8.103 -9.134 0.942
-8.103 -9.134 0.942
-8.141 -9.138 0.908
-8.674 -9.291 0.525
-8.161 -8.814 0.572
-7.896 -8.301 0.340
-8.161 -8.814 0.572
-8.161 -8.814 0.572
-7.896 -8.301 0.340
-8.674 -9.291 0.525
-8.161 -8.814 0.572
-7.896 -8.301 0.340
-7.896 -8.301 0.340
-8.161 -8.814 0.572
-8.218 -9.015 0.741
-8.074 -9.012 0.883
-8.818 -9.177 0.279
-8.077 -9.012 0.879
-8.077 -9.012 0.879
-8.818 -9.177 0.279
-8.077 -9.012 0.879
-8.077 -9.012 0.879
-8.818 -9.177 0.279
-8.077 -9.012 0.879
-8.818 -9.177 0.279
-8.077 -9.012 0.879
-8.165 -8.813 0.567
-8.746 -9.264 0.426
-8.751 -9.267 0.425
-8.746 -9.264 0.426
-8.746 -9.264 0.426
-8.746 -9.264 0.426
-8.746 -9.264 0.426
-8.746 -9.264 0.426
-8.107 -9.131 0.933
-8.107 -9.131 0.934
-8.751 -9.267 0.425
-8.107 -9.131 0.933
-8.107 -9.131 0.934
-8.744 -9.267 0.431
-8.178 -8.811 0.552
-8.744 -9.267 0.431
-8.744 -9.266 0.431
-8.146 -9.135 0.899
-8.146 -9.134 0.899
-8.146 -9.134 0.899
-8.146 -9.134 0.899
-8.146 -9.134 0.899
-8.146 -9.134 0.899
-8.112 -9.034 0.825
-8.146 -9.135 0.900
-8.165 -8.813 0.567
-8.746 -9.264 0.426
-8.746 -9.264 0.426
-8.746 -9.264 0.426
-8.746 -9.264 0.426
-8.746 -9.264 0.426
-8.146 -9.134 0.899
-8.146 -9.134 0.899
-7.310 -8.225 0.833
-8.146 -9.134 0.899
-7.907 -8.299 0.327
-7.907 -8.299 0.327
-7.907 -8.299 0.327
-8.165 -8.813 0.567
-8.165 -8.813 0.567
-8.165 -8.813 0.567
-8.165 -8.813 0.567
-7.907 -8.299 0.327
-8.165 -8.813 0.567
-8.165 -8.813 0.567
-8.165 -8.813 0.567
-8.165 -8.813 0.567
-8.165 -8.813 0.567
-8.165 -8.813 0.567
-8.744 -9.267 0.431
-8.165 -8.813 0.567
-8.165 -8.813 0.567
-8.782 -9.177 0.314
-8.746 -9.264 0.426
-8.173 -9.137 0.874
-8.074 -9.012 0.882
-8.173 -9.137 0.875
-8.074 -9.012 0.883
-8.782 -9.177 0.314
-8.746 -9.264 0.426
-8.165 -8.813 0.567
-8.782 -9.177 0.314
-8.782 -9.177 0.314
-8.751 -9.267 0.425
-8.074 -9.012 0.883
-8.179 -8.811 0.551
-8.746 -9.264 0.426
-8.077 -9.012 0.879
-8.746 -9.264 0.426
-8.746 -9.264 0.426
-8.746 -9.264 0.426
-8.782 -9.177 0.314
-8.782 -9.177 0.314
-8.108 -9.131 0.933
-8.746 -9.264 0.426
-8.782 -9.177 0.314
-8.782 -9.177 0.314
-8.782 -9.177 0.314
-8.782 -9.177 0.314
-7.328 -8.228 0.818
-8.075 -9.030 0.858
-8.075 -9.030 0.858
-8.108 -9.131 0.934
-8.746 -9.264 0.426
-8.744 -9.267 0.431
-8.782 -9.177 0.314
-8.744 -9.267 0.431
-8.744 -9.267 0.431
-8.744 -9.267 0.431
-8.108 -9.131 0.933
-8.108 -9.131 0.933
-8.108 -9.131 0.934
-8.108 -9.131 0.933
-8.165 -8.813 0.567
-8.173 -9.137 0.874
-8.165 -8.813 0.567
-8.165 -8.813 0.567
-8.074 -9.012 0.883
-8.074 -9.012 0.883
-8.746 -9.264 0.426
-8.782 -9.177 0.314
-8.077 -9.012 0.879
-8.746 -9.264 0.426
-8.746 -9.264 0.426
-8.782 -9.177 0.314
-8.782 -9.177 0.314
-8.744 -9.267 0.431
-8.146 -9.135 0.899
-8.782 -9.177 0.314
-8.107 -9.131 0.933
-8.165 -8.813 0.567
-8.165 -8.813 0.567
-8.744 -9.267 0.431
-8.818 -9.177 0.279
-8.077 -9.012 0.879
-8.746 -9.264 0.426
-8.746 -9.264 0.426
-8.146 -9.134 0.899
-8.165 -8.813 0.567
-8.074 -9.012 0.883
-8.204 -8.815 0.530
-8.074 -9.012 0.883
-8.746 -9.264 0.426
-8.782 -9.177 0.314
-7.328 -8.228 0.818
-7.379 -8.870 1.404
-8.078 -9.011 0.878
-8.005 -9.046 0.985
-8.807 -9.181 0.294
-8.608 -9.347 0.646
-8.096 -9.137 0.951
-8.162 -9.142 0.891
-8.162 -9.142 0.892
-8.097 -9.137 0.951
-6.951 -7.388 0.366
-8.608 -9.347 0.646
-8.002 -9.046 0.988
-8.002 -9.046 0.988
-8.608 -9.347 0.646
-8.608 -9.347 0.646
-8.608 -9.347 0.646
-8.772 -9.180 0.328
-8.772 -9.180 0.328
-8.772 -9.180 0.328
-8.609 -9.350 0.649
-7.297 -8.702 1.325
-7.297 -8.702 1.325
-8.097 -9.040 0.847
-8.271 -9.016 0.683
-8.014 -9.007 0.929
-8.014 -9.007 0.929
-8.014 -9.007 0.929
-8.069 -9.016 0.892
-8.069 -9.016 0.892
-7.324 -8.229 0.822
-8.140 -9.137 0.908
-8.087 -9.138 0.996
-8.102 -9.134 0.943
-8.102 -9.134 0.943
-8.129 -8.827 0.616
-8.144 -8.825 0.600
-8.144 -8.825 0.600
-8.872 -9.256 0.294
-8.744 -9.264 0.429
-7.380 -8.870 1.404
-8.784 -9.176 0.312
-7.337 -8.689 1.272
-8.184 -8.810 0.544
-8.820 -9.176 0.276
-7.342 -7.916 0.514
-7.309 -8.859 1.462
-7.309 -8.859 1.463
-7.381 -8.698 1.236
-8.751 -9.268 0.425
-8.091 -9.137 0.990
-8.077 -9.012 0.879
-8.077 -9.012 0.879
-8.091 -9.137 0.990
-8.077 -9.012 0.879
-8.091 -9.137 0.990
-7.309 -8.858 1.462
-8.110 -9.130 0.930
-8.148 -9.133 0.896
-7.381 -8.698 1.236
-8.077 -9.012 0.879
-8.746 -9.264 0.427
-7.381 -8.698 1.236
-8.746 -9.264 0.427
-8.110 -9.130 0.930
-8.110 -9.130 0.930
-8.110 -9.130 0.930
-8.110 -9.130 0.930
-8.110 -9.130 0.930
-8.746 -9.264 0.427
-8.746 -9.264 0.427
-8.751 -9.268 0.425
-8.171 -8.811 0.559
-8.171 -8.811 0.559
-8.175 -9.136 0.871
-7.337 -8.689 1.272
-7.337 -8.689 1.272
-7.337 -8.689 1.272
-7.337 -8.689 1.272
-8.110 -9.130 0.930
-7.337 -8.689 1.272
-7.337 -8.689 1.272
-7.337 -8.689 1.272
-7.337 -8.689 1.272
-8.110 -9.130 0.930
-8.110 -9.130 0.930
-8.023 -9.004 0.918
-7.337 -8.689 1.272
-7.337 -8.689 1.272
-8.746 -9.264 0.427
-8.746 -9.264 0.427
-8.071 -9.013 0.886
-8.110 -9.130 0.930
-8.077 -9.012 0.879
-8.010 -9.005 0.932
-8.071 -9.013 0.885
-7.309 -8.859 1.462
-7.309 -8.859 1.462
-8.746 -9.264 0.427
-8.746 -9.264 0.427
-8.071 -9.012 0.885
-8.071 -9.013 0.885
-8.746 -9.264 0.427
-8.746 -9.264 0.427
-8.746 -9.264 0.427
-8.746 -9.264 0.427
-8.746 -9.264 0.427
-8.746 -9.264 0.427
-8.746 -9.264 0.427
-8.746 -9.264 0.427
-8.071 -9.013 0.885
-8.746 -9.264 0.427
-8.071 -9.012 0.885
-8.746 -9.264 0.427
-7.337 -8.689 1.272
-7.309 -8.859 1.462
-8.184 -8.809 0.543
-8.023 -9.004 0.918
-8.744 -9.267 0.432
-8.110 -9.130 0.930
-8.110 -9.130 0.930
-7.381 -8.698 1.236
-8.746 -9.264 0.427
-8.010 -9.005 0.932
-8.071 -9.012 0.885
-8.010 -9.005 0.932
-8.229 -8.814 0.504
-7.340 -8.224 0.801
-8.074 -9.012 0.883
-8.784 -9.176 0.311
-6.909 -8.751 1.767
-8.023 -9.004 0.918
-8.073 -9.012 0.884
-8.073 -9.012 0.884
-8.073 -9.012 0.884
-8.073 -9.012 0.884
-8.175 -9.136 0.872
-8.784 -9.176 0.311
-8.110 -9.131 0.931
-8.175 -9.136 0.872
-8.091 -9.137 0.990
-8.171 -8.811 0.559
-7.308 -8.858 1.463
-7.381 -8.698 1.237
-7.381 -8.698 1.237
-7.308 -8.859 1.463
-7.308 -8.859 1.463
-7.381 -8.698 1.237
-7.308 -8.858 1.463
-7.308 -8.858 1.463
-7.308 -8.858 1.463
-8.184 -8.810 0.544
-8.110 -9.130 0.931
-8.110 -9.131 0.931
-8.110 -9.131 0.931
-8.110 -9.130 0.931
-7.337 -8.689 1.272
-8.784 -9.176 0.311
-8.077 -9.012 0.880
-7.309 -8.859 1.462
-8.077 -9.012 0.879
-7.309 -8.859 1.462
-7.309 -8.859 1.462
-8.074 -9.012 0.883
-8.074 -9.012 0.883
-8.088 -9.137 0.993
-8.074 -9.012 0.883
-8.074 -9.012 0.883
-6.967 -7.384 0.345
-8.184 -8.810 0.544
-8.184 -8.810 0.544
-7.342 -7.916 0.514
-7.337 -8.689 1.272
-8.148 -9.133 0.896
-7.337 -8.689 1.272
-8.074 -9.012 0.883
-8.088 -9.137 0.993
-8.746 -9.264 0.427
-8.746 -9.264 0.426
-7.337 -8.689 1.272
-7.381 -8.698 1.236
-7.381 -8.698 1.236
-7.337 -8.689 1.272
-7.381 -8.698 1.236
-7.309 -8.859 1.462
-8.110 -9.130 0.930
-8.110 -9.130 0.930
-7.382 -8.893 1.425
-8.149 -9.133 0.895
-7.309 -8.859 1.463
-7.381 -8.698 1.236
-7.381 -8.698 1.236
-7.309 -8.859 1.462
-8.077 -9.029 0.854
-7.381 -8.698 1.236
-8.746 -9.264 0.427
-8.091 -9.137 0.990
-7.309 -8.859 1.463
-8.077 -9.029 0.854
-8.074 -9.012 0.882
-7.381 -8.698 1.236
-7.381 -8.698 1.236
-7.309 -8.859 1.463
-7.309 -8.859 1.462
-7.309 -8.859 1.462
-8.110 -9.130 0.930
-8.077 -9.012 0.879
-7.381 -8.698 1.236
-7.381 -8.698 1.236
-7.381 -8.698 1.236
-7.381 -8.698 1.236
-7.381 -8.698 1.236
-7.381 -8.698 1.236
-7.381 -8.698 1.236
-7.383 -8.698 1.235
-8.074 -9.012 0.883
-8.771 -9.269 0.407
-8.746 -9.264 0.426
-8.746 -9.264 0.427
-8.746 -9.264 0.427
-8.746 -9.264 0.427
-8.746 -9.264 0.427
-8.746 -9.264 0.427
-8.110 -9.130 0.930
-8.110 -9.130 0.930
-8.746 -9.264 0.427
-8.031 -9.004 0.909
-7.337 -8.689 1.272
-8.018 -9.168 1.094
-7.428 -8.696 1.188
-7.385 -8.699 1.233
-7.385 -8.699 1.233
-7.385 -8.699 1.233
-8.006 -9.046 0.984
-8.006 -9.046 0.984
-7.328 -8.231 0.820
-7.334 -8.689 1.275
-7.334 -8.689 1.275
-8.774 -9.180 0.326
-8.098 -9.137 0.950
-8.018 -9.168 1.094
-8.008 -9.045 0.981
-8.008 -9.045 0.981
-8.008 -9.045 0.981
-8.008 -9.045 0.981
-8.008 -9.045 0.981
-7.927 -9.068 1.078
-8.003 -9.045 0.986
-8.009 -9.045 0.981
-8.841 -9.332 0.399
-8.073 -9.014 0.886
-8.073 -9.014 0.886
-8.073 -9.015 0.886
-8.073 -9.015 0.886
-8.008 -9.006 0.936
-8.008 -9.006 0.936
-8.008 -9.006 0.936
-8.073 -9.014 0.886
-8.070 -9.015 0.889
-8.070 -9.015 0.889
-8.003 -9.006 0.940
-7.381 -8.698 1.237
-8.687 -9.326 0.547
-7.381 -8.698 1.237
-7.381 -8.698 1.237
-7.381 -8.698 1.237
-7.381 -8.698 1.237
-8.069 -9.033 0.867
-8.069 -9.031 0.865
-8.142 -9.137 0.905
-8.104 -9.133 0.940
-7.309 -8.859 1.463
-7.381 -8.698 1.237
-7.381 -8.698 1.237
-7.336 -8.225 0.807
-7.336 -8.225 0.807
-7.336 -8.225 0.807
-7.381 -8.698 1.237
-7.381 -8.698 1.237
-7.381 -8.698 1.237
-7.381 -8.698 1.237
-8.073 -9.014 0.886
-7.381 -8.698 1.237
-7.381 -8.698 1.237
-7.336 -8.225 0.807
-8.069 -9.015 0.890
-8.073 -9.015 0.886
-7.336 -8.225 0.807
-8.086 -9.138 0.997
-8.104 -9.134 0.940
-8.073 -9.015 0.886
-8.073 -9.014 0.886
-7.381 -8.698 1.237
-7.381 -8.698 1.237
-8.142 -9.137 0.905
-7.381 -8.698 1.237
-7.339 -8.225 0.804
-8.142 -9.137 0.905
-8.070 -9.015 0.889
-7.381 -8.698 1.237
-7.381 -8.698 1.237
-7.381 -8.698 1.237
-7.381 -8.698 1.237
-7.381 -8.698 1.237
-8.073 -9.014 0.886
-7.309 -8.859 1.463
-7.381 -8.698 1.237
-8.150 -8.823 0.592
-8.150 -8.823 0.592
-7.381 -8.698 1.237
-8.073 -9.015 0.886
-8.069 -9.015 0.890
-8.142 -9.137 0.905
-7.381 -8.698 1.237
-8.070 -9.015 0.889
-8.008 -9.006 0.936
-7.381 -8.698 1.237
-7.381 -8.698 1.237
-8.073 -9.014 0.886
-6.612 -7.867 1.219
-7.381 -8.698 1.237
-7.336 -8.689 1.273
-7.309 -8.859 1.463
-8.181 -8.826 0.564
-6.611 -7.852 1.201
-7.381 -8.698 1.237
-7.309 -8.859 1.463
-8.150 -8.823 0.592
-8.073 -9.015 0.886
-8.073 -9.015 0.886
-8.073 -9.015 0.886
-8.069 -9.015 0.890
-8.070 -9.015 0.889
-9.563 -9.337 -0.271
-9.563 -9.337 -0.271
-9.563 -9.337 -0.271
-9.563 -9.337 -0.271
-9.563 -9.337 -0.271
-9.563 -9.337 -0.271
-9.563 -9.337 -0.271
-9.563 -9.337 -0.271
-9.563 -9.337 -0.271
-9.563 -9.337 -0.271
-9.563 -9.337 -0.271
-9.563 -9.337 -0.271
-9.563 -9.337 -0.271
-9.563 -9.337 -0.271
-9.563 -9.337 -0.271
-9.563 -9.337 -0.271
-9.563 -9.337 -0.271
-9.563 -9.337 -0.271
-9.563 -9.337 -0.271
-9.563 -9.337 -0.271
-9.563 -9.337 -0.271
-9.563 -9.337 -0.271
-9.563 -9.337 -0.271
-9.022 -8.805 -0.257
-9.022 -8.805 -0.257
-9.563 -9.337 -0.271
-9.563 -9.337 -0.271
-9.563 -9.337 -0.271
-9.563 -9.337 -0.271
-9.563 -9.337 -0.271
-9.563 -9.337 -0.271
-9.500 -9.149 -0.387
-9.500 -9.149 -0.387
-9.500 -9.149 -0.387
-9.500 -9.149 -0.387
-9.563 -9.337 -0.271
-9.563 -9.337 -0.271
-9.563 -9.337 -0.271
-9.563 -9.337 -0.271
-9.563 -9.337 -0.271
-9.500 -9.149 -0.387
-9.500 -9.149 -0.387
-9.500 -9.149 -0.387
-9.500 -9.149 -0.387
-9.022 -8.805 -0.257
-9.563 -9.337 -0.271
-9.563 -9.337 -0.271
-9.563 -9.337 -0.271
-9.563 -9.337 -0.271
-9.563 -9.337 -0.271
-9.022 -8.805 -0.257
-9.022 -8.805 -0.257
-9.022 -8.805 -0.257
-9.563 -9.337 -0.271
-9.563 -9.337 -0.271
-9.500 -9.149 -0.387
-9.500 -9.149 -0.387
-9.004 -8.766 -0.275
-9.563 -9.337 -0.271
-9.563 -9.337 -0.271
-9.500 -9.149 -0.387
-9.563 -9.337 -0.271
-8.992 -8.765 -0.264
-9.500 -9.149 -0.387
-9.500 -9.149 -0.387
-9.500 -9.149 -0.387
-9.500 -9.149 -0.387
-9.500 -9.149 -0.387
-9.500 -9.149 -0.387
-9.500 -9.149 -0.387
-9.022 -8.805 -0.257
-9.563 -9.337 -0.271
-9.563 -9.337 -0.271
-9.563 -9.337 -0.271
-9.563 -9.337 -0.271
-9.563 -9.337 -0.271
-9.563 -9.337 -0.271
-8.992 -8.765 -0.264
-8.992 -8.765 -0.264
-8.992 -8.765 -0.264
-8.992 -8.765 -0.264
-8.992 -8.765 -0.264
-9.500 -9.150 -0.387
-9.022 -8.805 -0.257
-9.022 -8.805 -0.257
-9.022 -8.805 -0.257
-9.563 -9.337 -0.271
-9.563 -9.337 -0.271
-9.500 -9.149 -0.387
-9.500 -9.149 -0.387
-9.500 -9.149 -0.387
-9.500 -9.149 -0.387
-9.563 -9.337 -0.271
-9.563 -9.337 -0.271
-9.563 -9.337 -0.271
-9.563 -9.337 -0.271
-9.563 -9.337 -0.271
-9.563 -9.337 -0.271
-9.563 -9.337 -0.271
-9.563 -9.337 -0.271
-9.563 -9.337 -0.271
-9.004 -8.766 -0.275
-9.579 -9.335 -0.287
-9.500 -9.149 -0.387
-9.500 -9.149 -0.387
-9.022 -8.805 -0.257
-9.022 -8.805 -0.257
-9.022 -8.805 -0.257
-9.022 -8.805 -0.257
-9.022 -8.805 -0.257
-9.022 -8.807 -0.255
-9.563 -9.337 -0.271
-8.992 -8.765 -0.264
-9.500 -9.150 -0.387
-9.500 -9.149 -0.387
-9.500 -9.149 -0.387
-9.500 -9.149 -0.387
-8.992 -8.765 -0.264
-8.992 -8.765 -0.264
-9.010 -8.806 -0.244
-9.563 -9.337 -0.271
-9.563 -9.337 -0.271
-9.563 -9.337 -0.271
-9.563 -9.337 -0.271
-9.563 -9.337 -0.271
-9.563 -9.337 -0.271
-8.992 -8.765 -0.264
-9.022 -8.805 -0.257
-9.022 -8.805 -0.257
-9.022 -8.805 -0.257
-9.022 -8.805 -0.257
-9.004 -8.766 -0.275
-9.004 -8.766 -0.275
-9.500 -9.150 -0.387
-9.563 -9.337 -0.271
-9.497 -9.149 -0.385
-9.563 -9.337 -0.271
-9.022 -8.805 -0.257
-9.500 -9.149 -0.387
-9.500 -9.149 -0.387
-9.500 -9.150 -0.387
-9.563 -9.337 -0.271
-9.563 -9.337 -0.271
-9.563 -9.337 -0.271
-9.563 -9.337 -0.271
-9.563 -9.337 -0.271
-9.563 -9.337 -0.271
-9.010 -8.802 -0.248
-9.500 -9.150 -0.387
-9.497 -9.149 -0.385
-9.497 -9.149 -0.385
-9.497 -9.149 -0.385
-9.497 -9.149 -0.385
-9.497 -9.149 -0.385
-9.563 -9.337 -0.271
-9.563 -9.337 -0.271
-8.992 -8.765 -0.264
-9.563 -9.336 -0.271
-9.563 -9.337 -0.271
-9.563 -9.337 -0.271
-9.629 -9.223 -0.441
-9.461 -9.035 -0.464
-9.505 -9.035 -0.508
-8.987 -8.599 -0.425
-8.987 -8.598 -0.426
-8.987 -8.598 -0.426
-8.987 -8.598 -0.426
-8.987 -8.598 -0.426
-9.599 -9.220 -0.412
-9.599 -9.220 -0.412
-9.461 -9.035 -0.465
-8.987 -8.598 -0.426
-9.599 -9.220 -0.412
-9.599 -9.220 -0.412
-9.599 -9.221 -0.412
-8.987 -8.598 -0.426
-9.599 -9.220 -0.412
-9.464 -9.035 -0.467
-9.505 -9.035 -0.508
-9.505 -9.035 -0.508
-9.505 -9.035 -0.508
-9.505 -9.035 -0.508
-9.505 -9.035 -0.508
-9.505 -9.035 -0.508
-9.505 -9.035 -0.508
-9.505 -9.035 -0.508
-9.505 -9.035 -0.508
-9.599 -9.220 -0.412
-9.599 -9.220 -0.412
-9.599 -9.220 -0.412
-9.599 -9.221 -0.412
-9.599 -9.221 -0.412
-9.464 -9.035 -0.467
-8.987 -8.598 -0.426
-9.599 -9.220 -0.412
-9.629 -9.223 -0.441
-8.987 -8.598 -0.426
-9.505 -9.035 -0.508
-9.505 -9.035 -0.508
-9.505 -9.035 -0.508
-9.505 -9.035 -0.508
-9.505 -9.035 -0.508
-9.464 -9.035 -0.467
-9.464 -9.035 -0.467
-9.599 -9.220 -0.412
-9.599 -9.220 -0.412
-9.505 -9.035 -0.508
-9.505 -9.035 -0.508
-9.629 -9.223 -0.441
-9.629 -9.223 -0.441
-9.599 -9.221 -0.412
-9.599 -9.221 -0.412
-9.599 -9.220 -0.412
-8.987 -8.598 -0.426
-9.599 -9.220 -0.412
-9.599 -9.221 -0.412
-8.999 -8.599 -0.436
-8.987 -8.598 -0.426
-9.505 -9.035 -0.508
-9.615 -9.219 -0.429
-8.987 -8.598 -0.426
-8.987 -8.598 -0.426
-8.987 -8.598 -0.426
-9.599 -9.220 -0.412
-9.599 -9.220 -0.412
-9.613 -9.224 -0.425
-9.599 -9.220 -0.412
-9.599 -9.221 -0.412
-8.999 -8.599 -0.436
-9.599 -9.220 -0.412
-9.599 -9.220 -0.412
-9.599 -9.220 -0.412
-9.599 -9.221 -0.412
-9.599 -9.220 -0.412
-9.629 -9.223 -0.441
-8.987 -8.598 -0.426
-8.987 -8.598 -0.426
-9.461 -9.035 -0.465
-9.629 -9.223 -0.441
-9.519 -9.034 -0.523
-8.999 -8.599 -0.436
-9.613 -9.224 -0.425
-8.987 -8.598 -0.426
-9.629 -9.223 -0.442
-9.599 -9.221 -0.412
-9.599 -9.220 -0.413
-9.599 -9.220 -0.412
-9.599 -9.220 -0.412
-9.599 -9.220 -0.412
-9.505 -9.034 -0.509
-8.999 -8.599 -0.436
-9.505 -9.034 -0.508
-9.505 -9.034 -0.509
-9.462 -9.035 -0.466
-9.462 -9.035 -0.466
-9.462 -9.035 -0.466
-8.987 -8.598 -0.426
-9.615 -9.218 -0.430
-9.629 -9.223 -0.442
-9.629 -9.223 -0.442
-9.599 -9.220 -0.413
-9.646 -9.221 -0.459
-9.505 -9.034 -0.509
-9.613 -9.224 -0.425
-8.987 -8.598 -0.426
-8.999 -8.599 -0.436
-8.999 -8.599 -0.436
-9.599 -9.220 -0.413
-9.599 -9.220 -0.413
-9.629 -9.223 -0.441
-9.462 -9.035 -0.465
-9.505 -9.034 -0.508
-9.505 -9.034 -0.509
-8.999 -8.599 -0.436
-9.505 -9.034 -0.509
-9.615 -9.219 -0.430
-9.615 -9.219 -0.430
-9.615 -9.219 -0.430
-9.615 -9.219 -0.430
-9.615 -9.219 -0.430
-9.599 -9.220 -0.413
-9.599 -9.220 -0.413
-9.126 -10.048 0.835
-9.126 -10.049 0.836
-9.126 -10.048 0.835
-9.126 -10.047 0.834
-9.126 -10.049 0.835
-9.126 -10.049 0.836
-9.126 -10.048 0.835
-9.126 -10.048 0.835
-9.126 -10.049 0.836
-9.126 -10.048 0.835
-9.126 -10.048 0.835
-9.126 -10.048 0.835
-9.126 -10.048 0.835
-9.126 -10.048 0.835
-9.126 -10.048 0.835
-9.126 -10.048 0.835
-9.126 -10.048 0.835
-9.126 -10.048 0.835
-9.126 -10.048 0.835
-9.096 -10.071 0.889
-9.125 -10.049 0.836
-9.125 -10.049 0.836
-9.125 -10.049 0.836
-9.125 -10.049 0.836
-9.125 -10.049 0.836
-9.125 -10.048 0.836
-9.125 -10.049 0.836
-9.125 -10.049 0.837
-9.125 -10.048 0.836
-9.125 -10.049 0.837
-9.096 -10.072 0.890
-9.096 -10.072 0.890
-9.096 -10.071 0.889
-9.096 -10.072 0.890
-9.125 -10.048 0.836
-9.096 -10.071 0.889
-9.096 -10.071 0.889
-9.096 -10.072 0.890
-9.096 -10.072 0.890
-9.096 -10.072 0.890
-9.125 -10.048 0.836
-9.125 -10.050 0.837
-9.096 -10.072 0.890
-9.125 -10.049 0.836
-9.125 -10.048 0.835
-9.126 -10.049 0.837
-9.125 -10.048 0.835
-9.096 -10.071 0.889
-8.954 -10.120 1.093
-9.125 -10.049 0.836
-9.096 -10.072 0.890
-9.096 -10.071 0.889
-9.096 -10.072 0.890
-9.096 -10.071 0.889
-9.125 -10.050 0.837
-9.125 -10.049 0.837
-9.096 -10.071 0.889
-9.096 -10.071 0.889
-9.096 -10.072 0.890
-9.125 -10.049 0.836
-9.125 -10.049 0.837
-9.126 -10.048 0.835
-9.126 -10.048 0.835
-9.126 -10.047 0.834
-9.096 -10.071 0.889
-9.096 -10.072 0.890
-8.954 -10.135 1.111
-9.096 -10.072 0.890
-9.096 -10.072 0.890
-9.125 -10.049 0.836
-9.056 -10.065 0.922
-9.096 -10.072 0.890
-9.126 -10.049 0.836
-9.126 -10.049 0.836
-9.096 -10.071 0.889
-9.096 -10.072 0.890
-9.126 -10.049 0.836
-9.096 -10.072 0.890
-9.096 -10.073 0.891
-9.126 -10.048 0.836
-9.126 -10.049 0.836
-9.126 -10.050 0.837
-9.096 -10.072 0.890
-9.126 -10.049 0.836
-9.126 -10.049 0.836
-8.955 -10.094 1.065
-9.126 -10.050 0.837
-8.955 -10.115 1.088
-8.872 -10.163 1.227
-9.125 -10.048 0.835
-9.125 -10.049 0.836
-9.125 -10.049 0.837
-9.096 -10.069 0.887
-8.954 -10.132 1.107
-9.096 -10.073 0.891
-8.952 -10.145 1.121
-8.954 -10.129 1.103
-9.096 -10.082 0.902
-9.096 -10.072 0.890
-9.096 -10.072 0.890
-9.096 -10.071 0.889
-9.096 -10.072 0.890
-9.056 -10.065 0.922
-8.954 -10.137 1.112
-8.954 -10.136 1.110
-8.954 -10.144 1.120
-9.096 -10.071 0.889
-9.096 -10.071 0.889
-9.096 -10.072 0.890
-9.096 -10.071 0.889
-9.096 -10.072 0.890
-9.056 -10.065 0.922
-8.953 -10.133 1.108
-9.125 -10.051 0.839
-9.056 -10.065 0.922
-9.096 -10.073 0.891
-9.096 -10.071 0.889
-9.096 -10.072 0.890
-7.818 -9.591 1.723
-7.818 -9.591 1.723
-7.818 -9.591 1.723
-9.126 -10.049 0.836
-9.056 -10.065 0.922
-8.954 -10.133 1.108
-7.506 -9.577 2.025
-7.506 -9.577 2.025
-9.096 -10.072 0.890
-9.126 -10.049 0.836
-9.096 -10.072 0.890
-7.820 -9.591 1.720
-9.096 -10.072 0.890
-9.126 -10.051 0.838
-9.126 -10.048 0.835
-7.820 -9.591 1.720
-7.504 -9.578 2.027
-9.096 -10.070 0.888
-9.096 -10.072 0.890
-7.506 -9.577 2.026
-9.096 -10.072 0.891
-8.953 -10.116 1.090
-9.096 -10.072 0.890
-9.056 -10.065 0.922
-9.056 -10.066 0.924
-9.056 -10.065 0.922
-9.096 -10.069 0.887
-9.096 -10.072 0.890
-9.056 -10.065 0.922
-9.126 -10.049 0.836
-9.126 -10.049 0.836
-7.820 -9.591 1.720
-7.504 -9.578 2.027
-7.504 -9.577 2.027
-7.820 -9.591 1.720
-7.504 -9.578 2.027
-7.504 -9.578 2.027
-9.126 -10.048 0.836
-8.953 -10.126 1.100
-7.506 -9.577 2.025
-8.954 -10.136 1.111
-8.954 -10.134 1.109
-7.820 -9.591 1.720
-8.399 -10.207 1.741
-8.857 -9.522 0.596
-9.849 -10.733 0.904
-9.849 -10.733 0.904
-9.849 -10.733 0.904
-9.849 -10.733 0.904
-9.849 -10.733 0.904
-9.849 -10.733 0.904
-9.849 -10.733 0.904
-9.849 -10.733 0.904
-9.849 -10.733 0.904
-9.849 -10.733 0.904
-9.849 -10.733 0.904
-9.849 -10.733 0.904
-9.849 -10.733 0.904
-9.849 -10.733 0.904
-9.849 -10.733 0.904
-9.849 -10.733 0.904
-9.011 -9.550 0.466
-9.011 -9.550 0.466
-9.011 -9.550 0.466
-9.849 -10.733 0.904
-9.849 -10.733 0.904
-9.849 -10.733 0.904
-9.011 -9.550 0.466
-8.804 -9.512 0.640
-9.451 -9.920 0.381
-9.850 -10.733 0.902
-9.850 -10.733 0.902