-10.227 -10.232 -0.088
-9.861 -10.053 0.055
-10.124 -10.316 0.001
-10.129 -10.300 -0.038
-10.716 -9.944 -0.773
-9.922 -10.014 -0.038
-13.859 -9.603 -4.590
-10.680 -9.942 -0.739
-10.292 -10.236 -0.150
-9.922 -10.014 -0.039
-12.240 -9.890 -2.623
-8.855 -10.475 1.270
-10.413 -9.936 -0.480
-13.055 -9.432 -3.914
-8.419 -9.566 1.090
-10.035 -10.263 0.143
-10.413 -9.936 -0.479
-12.763 -9.804 -3.222
-13.860 -9.603 -4.590
-10.917 -10.038 -1.047
-10.937 -9.694 -1.300
-13.555 -9.930 -4.238
-8.851 -9.983 1.079
-13.970 -9.612 -4.674
-9.860 -10.580 0.666
-8.419 -9.562 1.086
-9.722 -10.157 0.353
-9.810 -10.139 0.011
-9.437 -10.591 1.097
-12.788 -9.789 -3.246
-12.282 -9.870 -2.666
-8.863 -10.468 1.252
-8.863 -10.470 1.256
-12.282 -9.870 -2.666
-10.959 -9.705 -1.299
-10.926 -10.033 -1.058
-10.552 -9.886 -0.800
-11.114 -10.432 -1.047
-9.924 -10.014 -0.041
-11.114 -10.432 -1.047
-11.114 -10.433 -1.047
-8.660 -10.433 1.648
-9.276 -10.678 1.346
-9.276 -10.679 1.347
-8.863 -10.470 1.258
-11.114 -10.432 -1.047
-10.959 -9.705 -1.299
-13.197 -9.433 -4.041
-13.637 -9.852 -4.352
-10.944 -9.707 -1.282
-13.970 -9.612 -4.674
-8.980 -10.508 1.256
-8.668 -10.437 1.643
-13.756 -9.669 -4.547
-10.942 -9.708 -1.279
-8.980 -10.508 1.256
-9.413 -10.206 0.720
-12.248 -9.872 -2.634
-9.810 -10.161 0.038
-12.289 -9.787 -2.526
-10.086 -9.266 -0.900
-14.216 -3.380 -10.956
-8.648 -10.435 1.662
-12.447 -9.828 -2.647
-8.854 -10.476 1.279
-11.112 -10.434 -1.044
-8.854 -10.474 1.274
-8.949 -9.616 0.629
-10.924 -10.033 -1.055
-12.449 -9.828 -2.650
-9.754 -10.239 0.406
-9.925 -10.010 -0.044
-9.925 -10.011 -0.043
-10.924 -10.033 -1.056
-9.883 -9.246 -0.700
-8.657 -10.432 1.650
-13.812 -9.771 -4.512
-10.916 -10.038 -1.045
-13.943 -9.605 -4.655
-14.078 -9.534 -4.544
-8.724 -10.275 1.432
-9.896 -10.017 -0.014
-9.536 -6.335 -3.349
-10.914 -10.038 -1.043
-10.938 -9.709 -1.275
-14.114 -3.424 -10.813
-14.075 -9.563 -4.509
-14.115 -3.424 -10.813
-10.915 -10.038 -1.044
-10.939 -9.709 -1.276
-10.915 -10.038 -1.044
-14.077 -9.551 -4.524
-8.286 -10.098 1.726
-9.852 -10.580 0.674
-10.085 -10.204 -0.153
-10.023 -10.379 0.312
-11.795 -7.612 -4.202
-12.202 -9.872 -2.593
-11.112 -10.432 -1.045
-10.727 -3.537 -9.054
-13.774 -10.000 -4.455
-8.994 -10.429 1.355
-8.872 -10.430 1.476
-11.113 -10.429 -1.047
-9.454 -10.591 1.082
-8.841 -10.490 1.322
-12.255 -9.783 -2.495
-12.272 -9.888 -2.655
-9.261 -10.682 1.364
-10.552 -9.887 -0.799
-8.860 -10.430 1.487
-8.640 -9.520 0.772
-12.255 -9.784 -2.494
-8.841 -10.490 1.321
-9.851 -10.580 0.675
-11.113 -10.431 -1.047
-10.923 -10.034 -1.054
-11.113 -10.432 -1.046
-11.113 -10.432 -1.046
-9.197 -6.287 -3.000
-10.407 -10.110 -0.456
-8.653 -10.435 1.657
-8.878 -9.978 1.048
-14.215 -3.380 -10.955
-12.246 -9.889 -2.630
-10.339 -10.445 -0.322
-12.759 -9.802 -3.221
-12.351 -9.867 -2.734
-8.659 -10.430 1.647
-12.258 -9.872 -2.644
-10.957 -9.709 -1.295
-9.851 -10.580 0.675
-8.947 -9.618 0.634
-11.113 -10.432 -1.046
-9.185 -10.214 1.030
-10.413 -10.109 -0.463
-8.857 -10.432 1.491
-10.923 -10.034 -1.054
-8.442 -9.561 1.061
-9.255 -10.685 1.374
-10.085 -10.203 -0.153
-12.418 -9.830 -2.615
-8.838 -10.493 1.329
-11.112 -10.433 -1.046
-10.406 -10.110 -0.455
-12.759 -9.803 -3.220
-8.742 -10.273 1.412
-9.851 -10.580 0.675
-8.418 -9.541 1.073
-10.954 -9.710 -1.290
-10.522 -9.857 -0.789
-8.418 -9.541 1.074
-10.408 -10.110 -0.456
-9.788 -10.219 0.346
-11.112 -10.434 -1.044
-10.024 -10.379 0.311
-8.657 -10.439 1.657
-9.254 -10.685 1.375
-8.907 -10.152 1.189
-11.113 -10.432 -1.046
-8.693 -10.442 1.623
-10.408 -10.110 -0.456
-12.200 -9.872 -2.591
-8.948 -10.307 1.304
-10.365 -9.718 -0.861
-9.251 -10.686 1.379
-9.999 -10.389 0.345
-12.223 -9.785 -2.460
-10.924 -10.034 -1.055
-9.750 -10.240 0.410
-9.269 -9.892 0.505
-10.080 -10.194 -0.157
-9.750 -10.223 0.397
-9.480 -10.453 0.903
-8.650 -10.435 1.661
-8.692 -10.442 1.626
-8.642 -10.439 1.671
-10.924 -10.034 -1.055
-13.048 -9.433 -3.908
-8.889 -10.158 1.212
-8.424 -9.542 1.068
-8.424 -9.542 1.068
-9.262 -9.763 0.017
-11.113 -10.433 -1.045
-11.113 -10.433 -1.045
-11.746 -7.638 -4.138
-8.855 -10.441 1.504
-11.113 -10.433 -1.046
-9.007 -10.199 1.134
-12.238 -9.832 -2.429
-12.088 -9.874 -2.489
-9.224 -10.698 1.418
-9.007 -10.199 1.135
-10.949 -9.708 -1.285
-9.343 -10.309 0.892
-8.270 -9.565 1.249
-8.630 -10.447 1.689
-8.814 -10.523 1.422
-8.892 -10.248 1.194
-9.848 -10.581 0.678
-10.923 -10.034 -1.054
-10.106 -10.411 0.260
-9.751 -10.241 0.410
-8.431 -9.539 1.058
-10.411 -10.109 -0.461
-8.657 -10.437 1.655
-9.810 -9.862 -0.281
-8.911 -10.150 1.184
-8.895 -10.153 1.196
-9.848 -10.581 0.679
-14.212 -3.378 -10.952
-11.113 -10.432 -1.046
-12.194 -9.871 -2.584
-8.878 -9.979 1.048
-9.999 -10.389 0.346
-11.699 -9.808 -1.897
-11.240 -10.707 -0.636
-9.774 -10.607 0.778
-10.177 -3.305 -6.977
-8.580 -10.461 1.757
-9.641 -10.156 0.432
-10.543 -9.907 -0.762
-8.875 -9.976 1.048
-8.779 -10.466 1.604
-12.328 -9.850 -2.513
-8.779 -10.466 1.604
-10.178 -3.304 -6.980
-9.736 -10.604 0.813
-14.083 -3.382 -10.807
-10.082 -9.949 -0.212
-10.410 -10.110 -0.459
-10.210 -10.283 -0.142
-10.954 -9.710 -1.290
-10.025 -10.377 0.308
-10.410 -10.110 -0.459
-12.213 -9.873 -2.602
-8.910 -10.150 1.184
-8.699 -9.727 0.981
-9.829 -3.003 -6.804
-9.568 -9.875 0.180
-12.213 -9.873 -2.602
-8.862 -10.432 1.488
-10.025 -10.379 0.310
-12.789 -9.789 -3.248
-9.924 -10.014 -0.041
-8.423 -9.539 1.066
-8.854 -10.461 1.241
-12.304 -9.886 -2.682
-12.282 -9.870 -2.665
-8.660 -10.433 1.649
-10.400 -10.108 -0.451
-9.413 -10.202 0.715
-8.962 -9.608 0.609
-8.650 -10.429 1.654
-10.400 -10.110 -0.450
-8.883 -10.153 1.214
-9.711 -10.148 0.353
-8.432 -9.538 1.056
-10.400 -10.108 -0.451
-10.959 -9.709 -1.296
-8.727 -10.160 1.366
-9.815 -10.579 0.709
-11.795 -7.611 -4.202
-8.742 -10.273 1.413
-12.233 -9.891 -2.616
-8.569 -9.857 0.445
-10.026 -10.377 0.308
-9.328 -10.683 1.301
-8.881 -9.975 1.041
-12.630 -9.087 -4.469
-7.937 -9.798 1.794
-9.072 -9.583 0.459
-9.406 -10.207 0.728
-8.984 -9.897 0.864
-9.859 -10.580 0.667
-11.114 -10.432 -1.047
-9.260 -9.768 0.024
-10.955 -9.709 -1.291
-14.207 -3.382 -10.945
-11.919 -7.597 -4.326
-9.197 -6.288 -2.999
-8.911 -10.150 1.183
-8.911 -10.149 1.182
-8.663 -10.438 1.650
-10.408 -10.109 -0.458
-12.709 -9.651 -3.081
-11.114 -10.432 -1.047
-9.708 -10.150 0.358
-9.785 -9.800 -0.084
-9.266 -10.682 1.359
-8.855 -10.430 1.492
-13.859 -9.604 -4.589
-14.071 -9.654 -4.421
-8.717 -10.546 1.743
-8.948 -10.507 1.283
-10.016 -10.374 0.313
-10.410 -10.110 -0.459
-8.702 -9.723 0.975
-9.924 -10.013 -0.041
-8.960 -9.616 0.618
-8.420 -9.540 1.070
-11.917 -9.468 -2.717
-9.434 -10.591 1.100
-9.209 -6.286 -3.012
-9.314 -9.872 0.431
-8.271 -9.564 1.248
-12.787 -9.789 -3.246
-8.271 -9.564 1.247
-8.560 -10.090 1.495
-8.422 -9.539 1.067
-8.374 -9.851 1.417
-8.882 -9.970 1.035
-8.422 -9.539 1.068
-8.854 -10.461 1.241
-9.428 -10.591 1.107
-8.851 -9.947 1.028
-11.114 -10.432 -1.048
-8.869 -10.428 1.476
-8.699 -9.719 0.976
-8.715 -9.723 0.961
-9.626 -9.855 0.085
-9.711 -10.142 0.348
-8.398 -9.565 1.109
-8.659 -10.433 1.649
-10.024 -10.377 0.309
-9.252 -10.679 1.370
-10.413 -10.109 -0.463
-9.277 -9.695 0.250
-9.364 -6.356 -3.148
-10.509 -9.747 -0.859
-10.342 -9.897 -0.779
-11.948 -7.591 -4.360
-9.342 -9.864 0.384
-10.926 -10.033 -1.059
-8.923 -10.145 1.167
-11.930 -9.464 -2.733
-8.837 -10.474 1.286
-8.963 -9.613 0.613
-12.282 -9.870 -2.665
-9.859 -10.580 0.667
-8.873 -10.432 1.476
-11.919 -7.595 -4.328
-10.335 -10.445 -0.318
-14.208 -3.382 -10.946
-8.740 -10.020 1.251
-10.552 -9.889 -0.797
-8.957 -9.617 0.622
-8.344 -9.859 1.463
-9.035 -6.647 -2.443
-11.827 -7.607 -4.237
-9.711 -10.148 0.354
-10.413 -9.936 -0.480
-10.051 -10.386 0.293
-8.432 -9.538 1.057
-11.929 -9.464 -2.732
-8.422 -9.539 1.068
-8.882 -9.971 1.037
-10.958 -9.705 -1.299
-8.864 -10.457 1.222
-8.431 -10.026 1.515
-8.869 -10.428 1.476
-10.230 -10.278 -0.170
-14.209 -3.381 -10.948
-10.399 -10.108 -0.450
-8.156 -9.036 0.805
-12.499 -9.844 -2.888
-10.019 -10.379 0.316
-9.869 -2.972 -6.873
-8.864 -10.460 1.234
-8.700 -9.723 0.976
-12.356 -9.875 -2.743
-8.899 -9.956 1.004
-8.161 -9.805 1.588
-10.964 -9.705 -1.306
-10.019 -10.378 0.315
-9.823 -10.578 0.700
-8.653 -10.439 1.663
-10.164 -9.942 -0.282
-10.012 -10.373 0.317
-8.852 -10.432 1.497
-8.693 -9.725 0.984
-9.414 -10.207 0.719
-8.897 -10.156 1.196
-10.011 -10.378 0.322
-8.643 -10.435 1.669
-12.300 -9.781 -2.543
-8.407 -9.565 1.099
-8.898 -10.147 1.193
-9.235 -10.685 1.393
-14.153 -3.388 -10.885
-9.414 -10.195 0.708
-9.713 -10.136 0.338
-14.201 -3.376 -10.943
-8.883 -10.253 1.209
-9.681 -10.131 0.349
-8.619 -10.176 1.496
-8.843 -10.471 1.272
-8.900 -10.145 1.190
-9.769 -10.453 0.649
-8.745 -10.269 1.475
-8.397 -9.541 1.094
-10.947 -9.737 -1.260
-9.156 -10.722 1.510
-10.333 -10.446 -0.316
-8.929 -9.613 0.647
-9.003 -10.450 1.365
-8.989 -10.425 1.250
-9.768 -10.452 0.649
-8.137 -9.943 1.743
-8.760 -10.478 1.637
-9.156 -10.722 1.510
-8.649 -10.072 1.369
-9.624 -10.172 0.466
-10.948 -9.724 -1.272
-8.652 -9.736 1.036
-9.479 -10.297 0.555
-9.355 -10.624 1.213
-12.344 -9.807 -2.566
-8.972 -10.352 1.044
-8.886 -9.962 1.023
-9.233 -10.002 0.665
-11.859 -7.608 -4.265
-10.357 -10.344 -0.068
-10.337 -10.446 -0.319
-10.415 -10.113 -0.461
-10.539 -9.900 -0.771
-8.617 -10.466 1.732
-9.808 -10.597 0.736
-10.543 -9.885 -0.780
-9.338 -6.358 -3.129
-10.893 -10.041 -1.018
-9.313 -10.680 1.309
-14.055 -3.398 -10.766
-9.294 -9.609 0.272
-9.258 -9.779 0.037
-9.644 -10.165 0.439
-8.876 -9.974 1.045
-8.479 -10.123 1.608
-9.643 -10.143 0.417
-14.036 -3.395 -10.751
-10.926 -10.034 -1.057
-9.756 -10.449 0.661
-12.023 -9.484 -2.810
-11.766 -7.626 -4.159
-8.627 -10.469 1.722
-8.281 -9.839 1.528
-8.638 -10.096 1.427
-11.960 -9.457 -2.745
-9.205 -10.700 1.439
-9.654 -10.157 0.422
-8.881 -10.170 1.226
-8.659 -10.378 1.556
-8.806 -10.452 1.565
-9.837 -10.068 0.117
-8.910 -10.153 1.187
-8.373 -10.039 1.588
-8.625 -10.097 1.442
-9.205 -10.700 1.439
-8.324 -9.628 1.245
-8.820 -9.997 1.124
-9.240 -9.864 0.141
-8.940 -9.615 0.638
-10.411 -10.111 -0.459
-11.766 -7.626 -4.159
-11.762 -7.655 -4.154
-8.871 -9.975 1.051
-8.912 -10.151 1.183
-8.059 -8.788 0.680
-10.409 -10.111 -0.457
-9.756 -10.450 0.662
-8.400 -10.193 1.761
-8.920 -9.617 0.660
-10.367 -10.341 -0.082
-10.397 -10.111 -0.445
-8.619 -10.161 1.487
-13.932 -3.529 -10.557
-8.412 -9.543 1.081
-9.160 -6.306 -2.947
-9.000 -10.421 1.234
-9.755 -9.879 -0.066
-8.523 -10.419 1.756
-11.107 -10.435 -1.037
-8.411 -9.543 1.082
-9.757 -10.450 0.660
-10.406 -10.113 -0.452
-8.759 -10.475 1.635
-9.660 -10.267 0.529
-9.186 -10.718 1.477
-8.250 -9.662 1.364
-13.826 -3.415 -10.507
-9.261 -10.318 0.988
-10.944 -9.726 -1.265
-9.756 -10.450 0.662
-11.365 -9.425 -2.071
-13.960 -3.397 -10.663
-8.557 -10.211 1.598
-10.111 -3.337 -6.880
-10.409 -10.111 -0.457
-8.868 -9.978 1.057
-9.207 -10.697 1.434
-8.907 -10.154 1.192
-9.254 -9.807 0.073
-12.337 -9.880 -2.727
-11.888 -7.611 -4.284
-10.396 -10.111 -0.444
-10.111 -3.337 -6.880
-13.911 -3.410 -10.603
-11.759 -7.605 -4.153
-10.396 -10.111 -0.444
-9.301 -6.379 -3.068
-9.064 -6.320 -2.841
-11.107 -10.435 -1.037
-12.335 -9.809 -2.552
-9.479 -10.296 0.551
-9.004 -10.448 1.363
-13.889 -3.410 -10.580
-9.196 -10.700 1.449
-8.618 -10.472 1.734
-13.980 -3.500 -10.624
-8.384 -10.049 1.588
-12.274 -9.859 -2.667
-8.877 -10.172 1.232
-6.932 -8.512 1.554
-13.977 -3.519 -10.610
-12.300 -9.905 -2.668
-9.523 -10.276 0.484
-10.132 -9.999 -0.201
-12.010 -9.489 -2.792
-9.278 -6.390 -3.034
-9.693 -10.254 0.483
-11.106 -10.435 -1.036
-10.404 -10.112 -0.451
-9.693 -10.254 0.483
-13.976 -3.539 -10.600
-8.638 -10.095 1.426
-8.198 -9.626 1.380
-9.389 -10.612 1.167
-13.822 -3.425 -10.501
-13.892 -3.412 -10.581
-8.817 -10.004 1.135
-10.543 -9.888 -0.788
-11.105 -10.436 -1.035
-9.000 -10.305 0.920
-10.405 -10.112 -0.451
-11.714 -7.637 -4.100
-11.714 -7.637 -4.100
-8.267 -9.865 1.505
-8.832 -10.180 1.317
-9.353 -10.617 1.208
-11.711 -7.638 -4.096
-8.360 -10.132 1.742
-13.977 -3.519 -10.610
-8.641 -10.096 1.424
-10.403 -10.112 -0.450
-13.889 -3.413 -10.578
-13.889 -3.413 -10.578
-8.794 -10.452 1.576
-8.832 -10.178 1.315
-9.353 -10.617 1.208
-11.835 -7.621 -4.221
-8.631 -10.101 1.439
-8.793 -10.455 1.581
-11.363 -9.423 -2.071
-10.403 -10.112 -0.451
-10.037 -10.072 -0.276
-10.332 -10.445 -0.312
-8.002 -8.154 -0.236
-12.308 -9.886 -2.693
-13.956 -3.400 -10.656
-13.906 -3.413 -10.597
-9.651 -9.902 0.150
-8.376 -9.874 1.441
-8.376 -9.874 1.441
-9.767 -9.738 -0.215
-11.881 -7.705 -4.244
-9.751 -10.451 0.667
-9.324 -10.634 1.254
-11.102 -10.436 -1.031
-11.368 -9.422 -2.076
-10.082 -10.094 -0.287
-13.955 -3.401 -10.654
-10.331 -10.445 -0.313
-8.356 -9.619 1.203
-8.369 -10.119 1.722
-8.864 -9.984 1.069
-10.405 -10.112 -0.452
-10.721 -9.944 -0.779
-14.212 -3.381 -10.950
-8.893 -10.247 1.190
-10.061 -10.389 0.285
-8.728 -10.021 1.264
-8.421 -9.562 1.083
-10.226 -3.274 -7.055
-10.337 -10.444 -0.321
-8.855 -10.478 1.279
-10.525 -9.923 -0.740
-9.453 -10.592 1.083
-8.873 -9.981 1.055
-9.783 -9.800 -0.082
-8.437 -10.029 1.511
-11.884 -7.605 -4.287
-8.730 -10.020 1.261
-12.240 -9.894 -2.617
-9.902 -9.226 -0.731
-11.762 -7.628 -4.161
-11.762 -7.619 -4.164
-8.745 -10.020 1.245
-10.337 -10.445 -0.320
-10.404 -10.110 -0.453
-9.761 -10.227 0.386
-8.360 -9.915 1.526
-10.071 -9.305 -0.865
-8.703 -9.727 0.977
-9.285 -9.682 0.229
-9.827 -9.984 -0.118
-12.237 -9.894 -2.615
-9.749 -10.242 0.413
-8.724 -10.021 1.268
-8.840 -10.491 1.323
-8.730 -10.021 1.262
-12.193 -9.876 -2.577
-12.237 -9.894 -2.615
-14.131 -3.402 -10.853
-8.659 -10.437 1.653
-10.022 -10.379 0.312
-11.112 -10.432 -1.044
-8.592 -9.874 1.246
-8.864 -10.430 1.483
-10.330 -10.449 -0.307
-8.178 -9.973 1.747
-9.424 -10.594 1.113
-11.758 -7.620 -4.160
-12.237 -9.894 -2.615
-14.120 -3.347 -10.847
-8.724 -10.021 1.268
-8.731 -10.020 1.260
-14.163 -3.397 -10.891
-9.008 -10.197 1.128
-8.423 -9.563 1.082
-10.022 -10.379 0.312
-12.237 -9.894 -2.615
-14.131 -3.402 -10.853
-8.098 -8.802 0.646
-10.338 -10.444 -0.321
-8.426 -9.563 1.078
-10.587 -3.585 -8.854
-9.326 -10.674 1.290
-8.477 -10.124 1.612
-8.855 -10.012 1.104
-14.050 -3.400 -10.759
-8.329 -9.624 1.237
-8.999 -9.993 0.960
-8.696 -10.522 1.741
-11.691 -9.499 -2.500
-8.139 -8.785 0.589
-8.710 -10.521 1.727
-8.871 -9.665 0.755
-10.339 -10.124 -0.376
-11.582 -9.838 -2.045
-8.476 -10.124 1.612
-9.708 -9.365 -0.424
-9.708 -9.365 -0.423
-14.010 -3.408 -10.712
-8.520 -10.155 1.586
-8.882 -6.357 -2.640
-11.587 -7.657 -3.956
-8.347 -9.962 1.580
-9.531 -10.653 1.064
-8.895 -10.248 1.190
-14.135 -3.407 -10.851
-8.294 -9.563 1.224
-8.554 -10.092 1.503
-10.038 -10.379 0.296
-9.546 -6.612 -2.978
-10.038 -10.378 0.295
-9.422 -10.648 1.169
-8.892 -10.249 1.194
-14.102 -3.415 -10.811
-8.552 -10.091 1.500
-8.723 -10.023 1.271
-8.895 -10.248 1.190
-14.102 -3.416 -10.811
-8.951 -8.540 -0.500
-9.750 -10.277 0.269
-8.429 -9.569 1.082
-14.104 -3.410 -10.815
-13.650 -9.585 -4.407
-8.917 -10.252 1.168
-10.075 -10.385 0.266
-8.560 -10.090 1.495
-8.561 -10.089 1.494
-10.074 -10.386 0.270
-8.175 -9.968 1.745
-9.896 -9.240 -0.713
-9.896 -9.241 -0.712
-10.367 -10.115 -0.413
-8.618 -10.217 1.452
-8.892 -10.248 1.194
-10.034 -10.373 0.295
-9.919 -10.010 -0.038
-11.806 -7.609 -4.215
-9.925 -10.010 -0.043
-10.034 -10.374 0.296
-8.735 -10.019 1.255
-10.074 -10.386 0.269
-9.755 -10.241 0.407
-10.075 -10.385 0.266
-5.571 -7.980 2.307
-8.861 -10.429 1.485
-10.846 -9.273 -1.858
-14.200 -5.575 -9.074
-14.245 -5.213 -9.465
-14.351 -10.109 -4.718
-14.351 -10.109 -4.718
-14.351 -10.109 -4.718
-14.626 -5.245 -9.819
-11.067 -11.610 0.085
-11.131 -9.641 -1.784
-14.245 -5.213 -9.465
-10.935 -11.593 -0.235
-10.007 -10.605 0.579
-14.245 -5.213 -9.465
-14.085 -5.216 -9.299
-10.832 -11.692 0.790
-7.339 -4.973 -4.765
-10.935 -11.593 -0.235
-11.908 -12.051 0.055
-8.527 -10.040 0.994
-10.920 -11.695 0.704
-14.204 -5.574 -9.080
-9.954 -10.488 0.446
-10.603 -10.466 -0.280
-11.137 -9.637 -1.795
-9.423 -10.253 0.474
-14.090 -5.215 -9.304
-9.211 -10.231 0.658
-15.872 -3.756 -17.312
-11.853 -12.067 0.128
-9.231 -10.227 0.635
-14.291 -10.178 -4.574
-9.241 -10.212 0.572
-11.907 -12.051 0.055
-10.252 -9.687 -1.151
-11.833 -12.070 0.153
-10.920 -11.695 0.704
-15.789 -3.747 -17.265
-15.878 -3.756 -17.318
-17.277 -8.187 -9.116
-14.629 -5.244 -9.824
-14.090 -5.215 -9.304
-11.796 -12.062 0.180
-11.796 -12.062 0.180
-11.853 -12.067 0.128
-10.067 -9.695 -0.946
-11.907 -12.051 0.055
-9.230 -10.223 0.632
-11.907 -12.051 0.055
-14.351 -10.107 -4.721
-10.874 -11.585 -0.187
-14.090 -5.215 -9.304
-15.789 -3.747 -17.265
-11.854 -12.067 0.128
-15.783 -7.794 -7.978
-8.492 -10.037 1.028
-12.996 -8.303 -4.707
-10.920 -11.695 0.704
-9.945 -10.491 0.460
-15.876 -3.756 -17.316
-8.846 -9.388 0.429
-14.090 -5.215 -9.304
-15.874 -3.756 -17.314
-11.853 -12.067 0.128
-14.090 -5.215 -9.304
-14.630 -5.244 -9.825
-15.789 -3.747 -17.265
-14.351 -10.107 -4.721
-13.552 -10.072 -3.963
-11.854 -12.067 0.128
-11.854 -12.067 0.128
-9.842 -8.659 -1.757
-10.935 -11.593 -0.236
-8.849 -9.388 0.426
-14.090 -5.215 -9.304
-8.468 -10.031 1.041
-11.137 -9.637 -1.794
-14.351 -10.107 -4.721
-14.630 -5.245 -9.824
-14.351 -10.107 -4.721
-15.872 -3.756 -17.312
-11.853 -12.067 0.128
-11.853 -12.067 0.128
-13.977 -10.206 -4.250
-15.789 -3.747 -17.265
-14.351 -10.106 -4.721
-15.879 -3.756 -17.318
-10.651 -11.012 0.351
-11.854 -12.067 0.128
-14.340 -5.567 -9.225
-15.879 -3.756 -17.318
-10.651 -11.012 0.351
-9.231 -10.508 1.246
-10.022 -10.591 0.552
-9.237 -10.218 0.588
-11.853 -12.067 0.128
-14.351 -10.107 -4.721
-10.019 -9.693 -0.903
-14.249 -5.212 -9.470
-8.573 -10.929 2.359
-11.137 -9.637 -1.794
-10.252 -9.687 -1.151
-11.853 -12.067 0.128
-12.604 -2.114 -11.899
-9.206 -10.232 0.665
-11.853 -12.067 0.128
-11.137 -9.637 -1.794
-14.351 -10.107 -4.721
-14.307 -10.163 -4.608
-11.853 -12.067 0.128
-9.231 -10.223 0.630
-15.789 -3.747 -17.265
-9.434 -10.520 1.027
-9.046 -9.766 0.622
-9.210 -10.208 0.598
-8.933 -10.668 1.710
-11.853 -12.067 0.128
-9.237 -10.216 0.584
-10.085 -11.408 1.259
-9.221 -9.822 0.572
-8.907 -10.482 1.561
-15.782 -7.793 -7.978
-10.651 -11.012 0.351
-8.908 -10.631 1.686
-12.355 -10.942 -1.666
-10.007 -10.514 0.445
-12.302 -11.004 -1.540
-11.853 -12.067 0.128
-9.231 -10.226 0.635
-9.231 -10.224 0.632
-11.853 -12.067 0.128
-9.237 -10.212 0.579
-8.596 -10.064 0.988
-9.231 -10.225 0.632
-10.272 -11.076 0.414
-14.090 -5.215 -9.304
-11.137 -9.637 -1.795
-13.425 -10.285 -3.445
-16.000 -3.747 -17.475
-10.651 -11.011 0.351
-9.249 -10.446 1.169
-9.542 -8.933 -0.596
-11.817 -12.059 0.155
-14.090 -5.215 -9.304
-9.400 -10.258 0.504
-12.742 -8.130 -4.650
-14.307 -10.163 -4.608
-15.662 -3.756 -17.103
-11.207 -9.610 -1.893
-9.239 -10.253 0.619
-9.253 -10.445 1.163
-10.651 -11.012 0.351
-11.856 -12.068 0.126
-10.066 -9.696 -0.944
-9.211 -9.986 0.379
-8.724 -8.646 -0.158
-11.856 -12.068 0.126
-9.837 -8.663 -1.748
-9.691 -8.659 -1.621
-12.259 -10.984 -1.517
-11.820 -12.060 0.152
-9.015 -10.677 1.632
-11.910 -12.052 0.052
-17.217 -8.203 -9.039
-11.488 -11.891 0.369
-10.258 -9.587 -1.247
-10.136 -9.648 -1.066
-8.848 -10.735 1.898
-11.406 -10.899 -0.753
-9.056 -10.671 1.586
-8.772 -10.031 0.693
-9.324 -10.433 1.081
-13.790 -9.770 -4.623
-11.856 -12.068 0.125
-10.921 -11.696 0.704
-14.199 -5.230 -9.403
-11.910 -12.052 0.052
-14.346 -10.108 -4.715
-11.856 -12.068 0.125
-10.019 -9.695 -0.900
-11.856 -12.068 0.125
-14.346 -10.108 -4.715
-11.910 -12.052 0.052
-11.799 -12.063 0.178
-8.658 -8.644 -0.095
-10.933 -11.593 -0.234
-14.346 -10.108 -4.715
-10.650 -11.012 0.352
-9.230 -10.228 0.579
-15.778 -3.773 -17.188
-9.005 -10.667 1.634
-11.874 -12.044 0.079
-11.910 -12.052 0.053
-11.856 -12.068 0.126
-10.650 -11.012 0.352
-9.015 -10.677 1.633
-11.910 -12.052 0.052
-8.904 -10.483 1.564
-8.849 -9.388 0.426
-11.856 -12.068 0.125
-7.338 -4.968 -4.771
-10.933 -11.594 -0.234
-8.605 -10.035 0.903
-9.423 -10.258 0.449
-9.209 -9.943 0.340
-14.199 -5.229 -9.403
-8.542 -10.026 0.954
-9.216 -10.223 0.613
-9.438 -10.521 1.024
-11.910 -12.052 0.052
-15.728 -7.807 -7.910
-9.183 -10.461 1.238
-15.727 -7.806 -7.910
-8.983 -10.666 1.655
-10.060 -9.695 -0.938
-9.217 -10.230 0.652
-15.727 -7.806 -7.910
-8.566 -10.032 0.941
-10.604 -11.018 0.402
-8.971 -10.467 1.471
-11.910 -12.052 0.052
-15.727 -7.806 -7.910
-15.727 -7.806 -7.910
-9.171 -10.879 1.712
-9.221 -9.822 0.572
-10.236 -9.639 -1.203
-11.799 -12.063 0.177
-9.418 -10.255 0.481
-11.910 -12.052 0.052
-11.910 -12.052 0.052
-11.477 -11.910 0.401
-7.422 -4.924 -4.904
-8.244 -8.814 0.449
-9.851 -10.921 1.045
-8.989 -10.658 1.643
-9.034 -10.858 1.792
-8.660 -10.631 1.932
-9.851 -10.921 1.045
-11.381 -10.878 -0.766
-9.935 -10.472 0.453
-15.567 -3.774 -16.977
-8.622 -10.639 1.978
-9.208 -10.251 0.634
-8.818 -10.625 1.773
-11.910 -12.052 0.052
-10.933 -11.594 -0.233
-9.171 -10.879 1.711
-8.028 -8.095 -0.015
-14.346 -10.108 -4.715
-9.239 -10.215 0.579
-9.213 -10.046 0.414
-14.346 -10.108 -4.715
-9.171 -10.879 1.711
-10.244 -9.617 -1.192
-8.941 -10.477 1.511
-8.240 -8.816 0.455
-7.341 -4.967 -4.775
-11.142 -9.638 -1.797
-8.909 -10.472 1.546
-15.724 -7.811 -7.901
-9.217 -10.230 0.654
-15.777 -3.774 -17.187
-9.275 -11.253 1.900
-14.346 -10.108 -4.715
-15.777 -3.773 -17.187
-15.694 -3.764 -17.139
-14.302 -10.165 -4.602
-9.018 -10.677 1.629
-8.612 -10.034 0.893
-8.942 -10.485 1.521
-9.426 -10.258 0.445
-11.856 -12.068 0.126
-9.205 -10.883 1.680
-9.240 -10.220 0.584
-8.943 -10.480 1.516
-8.066 -8.385 0.283
-8.634 -10.637 1.964
-8.367 -10.242 1.836
-9.450 -10.520 1.011
-8.214 -8.518 0.279
-9.017 -10.676 1.630
-10.071 -9.696 -0.949
-8.906 -10.482 1.561
-9.222 -9.822 0.571
-9.096 -9.805 0.677
-9.203 -10.441 1.219
-9.017 -10.677 1.631
-8.607 -10.034 0.899
-14.580 -5.261 -9.757
-15.727 -7.806 -7.910
-10.131 -9.635 -1.068
-9.909 -10.480 0.488
-8.212 -8.519 0.281
-9.224 -10.220 0.602
-8.499 -10.037 1.021
-7.277 -4.985 -4.691
-11.141 -9.638 -1.797
-11.856 -12.068 0.126
-9.103 -10.440 1.316
-13.318 -8.439 -4.874
-10.604 -11.018 0.402
-8.530 -10.555 1.921
-8.905 -10.483 1.563
-15.726 -7.812 -7.902
-8.924 -10.488 1.537
-8.016 -9.856 1.797
-9.238 -10.886 1.646
-9.425 -10.254 0.441
-9.171 -10.879 1.711
-7.285 -4.981 -4.702
-9.542 -8.934 -0.595
-8.943 -10.483 1.518
-8.214 -8.519 0.279
-9.919 -10.480 0.479
-8.611 -10.034 0.894
-9.426 -10.253 0.439
-8.214 -8.518 0.278
-8.612 -10.035 0.894
-14.302 -10.165 -4.602
-8.435 -10.388 1.867
-15.777 -3.774 -17.186
-9.211 -10.225 0.621
-8.925 -10.497 1.555
-9.483 -10.534 0.994
-8.007 -9.840 1.789
-8.269 -8.839 0.533
-10.238 -9.604 -1.200
-11.142 -9.638 -1.798
-11.856 -12.068 0.125
-13.339 -8.461 -4.875
-9.205 -10.881 1.678
-8.943 -10.483 1.518
-8.056 -8.578 0.492
-9.233 -10.224 0.629
-9.513 -10.511 0.969
-9.075 -10.451 1.346
-14.346 -10.108 -4.715
-9.245 -10.457 1.170
-10.024 -10.590 0.550
-7.340 -4.967 -4.774
-7.340 -4.967 -4.774
-8.941 -10.487 1.523
-8.941 -10.470 1.507
-9.426 -10.254 0.441
-8.266 -8.840 0.536
-10.871 -11.585 -0.184
-9.424 -10.256 0.442
-11.856 -12.068 0.126
-8.940 -10.484 1.522
-7.184 -5.008 -4.569
-8.055 -8.367 0.276
-10.586 -11.018 0.420
-14.302 -10.165 -4.602
-10.244 -9.613 -1.198
-8.907 -10.482 1.560
-9.199 -10.485 1.254
-7.187 -5.007 -4.573
-8.924 -10.464 1.509
-9.426 -10.254 0.440
-8.019 -9.857 1.795
-8.613 -10.035 0.893
-8.943 -10.482 1.516
-9.223 -11.288 1.986
-8.018 -9.860 1.799
-8.305 -8.646 -0.121
-8.742 -10.107 1.302
-9.161 -9.825 0.634
-10.693 -10.557 -0.269
-10.552 -10.496 -0.388
-11.644 -10.725 -1.004
-10.754 -10.628 -0.256
-11.675 -10.724 -1.035
-10.553 -10.611 -0.075
-10.754 -10.628 -0.256
-11.225 -10.937 -0.297
-11.657 -10.725 -1.017
-11.225 -10.937 -0.297
-11.675 -10.724 -1.036
-11.984 -10.269 -1.799
-10.593 -10.461 -0.465
-11.703 -10.598 -1.191
-11.672 -10.600 -1.159
-10.594 -10.461 -0.465
-10.594 -10.461 -0.465
-10.193 -9.778 -0.537
-10.652 -10.463 -0.499
-9.713 -9.938 -0.069
-11.329 -10.477 -0.962
-10.793 -10.499 -0.424
-10.083 -10.468 0.370
-10.806 -10.500 -0.436
-11.948 -10.277 -1.756
-10.599 -10.473 -0.469
-11.983 -10.269 -1.799
-9.742 -9.947 -0.103
-10.636 -10.461 -0.507
-11.732 -10.602 -1.216
-11.948 -10.277 -1.756
-11.315 -10.470 -0.957
-11.732 -10.602 -1.216
-11.702 -10.599 -1.190
-10.812 -10.500 -0.442
-10.015 -10.313 0.238
-10.805 -10.500 -0.435
-10.366 -10.109 -0.262
-10.592 -10.462 -0.462
-10.826 -10.500 -0.456
-11.300 -10.463 -0.948
-10.038 -10.165 0.124
-10.366 -10.111 -0.262
-11.731 -10.601 -1.216
-10.366 -10.110 -0.262
-11.329 -10.477 -0.962
-10.793 -10.499 -0.424
-9.742 -9.947 -0.103
-10.805 -10.500 -0.435
-9.595 -9.584 -0.032
-11.329 -10.825 -0.510
-13.700 -9.431 -4.563
-11.120 -10.630 -0.597
-11.329 -10.825 -0.511
-11.703 -10.598 -1.192
-10.794 -10.499 -0.424
-11.948 -10.277 -1.756
-11.732 -10.602 -1.216
-11.702 -10.599 -1.190
-10.792 -10.500 -0.422
-9.742 -9.947 -0.103
-10.366 -10.111 -0.261
-10.011 -10.539 0.452
-10.592 -10.462 -0.462
-10.015 -10.312 0.237
-10.866 -10.497 -0.492
-11.329 -10.825 -0.510
-10.039 -10.310 0.213
-11.702 -10.599 -1.190
-10.015 -10.313 0.237
-10.593 -10.462 -0.463
-10.498 -9.936 -0.566
-11.120 -10.589 -0.704
-11.675 -10.724 -1.035
-10.434 -10.812 0.267
-10.272 -10.425 -0.124
-10.485 -9.936 -0.553
-11.658 -10.725 -1.017
-9.558 -10.073 0.220
-10.610 -10.569 -0.371
-9.629 -10.444 0.753
-10.485 -9.936 -0.553
-10.701 -10.585 -0.220
-13.593 -8.671 -5.555
-10.670 -10.496 -0.312
-10.017 -10.313 0.235
-11.330 -10.825 -0.512
-9.596 -9.589 -0.028
-11.330 -10.825 -0.512
-11.343 -10.826 -0.525
-9.596 -9.589 -0.027
-9.742 -9.947 -0.103
-13.593 -8.671 -5.555
-11.673 -10.599 -1.160
-10.205 -9.774 -0.555
-10.793 -10.499 -0.425
-9.596 -9.586 -0.031
-11.330 -10.825 -0.512
-10.017 -10.313 0.235
-11.330 -10.825 -0.512
-10.827 -10.500 -0.458
-10.593 -10.461 -0.467
-11.715 -10.602 -1.199
-10.012 -10.535 0.450
-9.595 -9.592 -0.025
-10.635 -10.498 -0.274
-11.329 -10.825 -0.511
-11.300 -10.463 -0.947
-11.343 -10.826 -0.525
-11.703 -10.598 -1.192
-10.666 -10.498 -0.305
-9.596 -9.587 -0.030
-10.599 -10.463 -0.469
-10.599 -10.463 -0.469
-9.596 -9.589 -0.028
-11.731 -10.606 -1.217
-10.859 -10.470 -0.486
-11.343 -10.826 -0.525
-11.948 -10.277 -1.756
-10.666 -10.498 -0.306
-8.384 -8.845 0.408
-10.793 -10.499 -0.425
-11.732 -10.601 -1.218
-9.802 -10.311 0.452
-10.592 -10.463 -0.463
-10.015 -10.312 0.239
-11.329 -10.477 -0.963
-9.802 -8.925 -0.857
-10.806 -10.500 -0.437
-9.596 -9.586 -0.031
-11.673 -10.599 -1.160
-11.343 -10.826 -0.525
-11.732 -10.601 -1.218
-10.805 -10.500 -0.435
-10.651 -10.463 -0.499
-9.743 -9.947 -0.103
-10.016 -10.313 0.236
-11.703 -10.599 -1.190
-13.700 -9.431 -4.564
-11.984 -10.269 -1.800
-11.045 -10.632 -0.524
-11.330 -10.825 -0.512
-11.676 -10.723 -1.037
-13.593 -8.671 -5.555
-10.367 -10.109 -0.263
-10.636 -10.461 -0.508
-9.607 -9.590 -0.037
-10.664 -10.498 -0.304
-13.593 -8.671 -5.555
-10.867 -10.496 -0.495
-11.702 -10.602 -1.186
-11.343 -10.826 -0.525
-10.792 -10.499 -0.424
-11.673 -10.600 -1.160
-10.665 -10.498 -0.305
-10.651 -10.463 -0.499
-8.228 -8.521 0.267
-10.498 -9.936 -0.566
-11.226 -10.937 -0.298
-9.999 -10.429 0.371
-11.702 -10.602 -1.186
-11.732 -10.601 -1.218
-11.300 -10.463 -0.948
-11.732 -10.601 -1.217
-9.607 -9.590 -0.039
-11.673 -10.600 -1.159
-11.329 -10.825 -0.511
-11.329 -10.825 -0.511
-9.596 -9.589 -0.027
-11.676 -10.724 -1.037
-11.729 -10.596 -1.216
-11.329 -10.825 -0.511
-11.948 -10.277 -1.756
-11.974 -10.268 -1.787
-11.330 -10.825 -0.512
-11.330 -10.825 -0.512
-10.845 -10.502 -0.475
-11.703 -10.598 -1.192
-10.204 -9.785 -0.542
-10.016 -10.313 0.236
-11.948 -10.277 -1.756
-9.842 -9.153 -0.819
-10.610 -10.569 -0.373
-11.545 -10.711 -0.922
-8.055 -8.112 -0.051
-10.130 -10.614 0.468
-11.224 -10.947 -0.292
-11.658 -10.725 -1.018
-11.676 -10.724 -1.036
-13.700 -9.431 -4.564
-11.330 -10.825 -0.512
-9.779 -10.316 0.477
-8.669 -8.923 0.190
-13.731 -9.425 -4.599
-11.673 -10.600 -1.160
-11.301 -10.463 -0.949
-11.972 -10.268 -1.784
-10.592 -10.462 -0.464
-11.731 -10.597 -1.221
-10.825 -10.500 -0.457
-9.293 -8.688 -0.703
-10.218 -10.167 -0.053
-11.343 -10.826 -0.525
-11.329 -10.825 -0.511
-11.732 -10.601 -1.218
-9.607 -9.599 -0.029
-9.727 -9.732 -0.025
-10.041 -10.312 0.212
-10.218 -10.167 -0.053
-9.435 -9.589 0.131
-13.731 -9.425 -4.600
-10.218 -10.167 -0.053
-11.143 -10.827 -0.322
-11.643 -10.726 -1.002
-10.475 -10.620 0.007
-13.628 -8.666 -5.593
-11.757 -10.599 -1.243
-11.730 -10.598 -1.218
-11.328 -10.825 -0.510
-10.547 -10.457 -0.438
-11.143 -10.828 -0.322
-10.015 -10.312 0.238
-9.462 -8.924 -0.525
-11.731 -10.602 -1.216
-11.756 -10.599 -1.241
-11.342 -10.826 -0.524
-11.714 -10.602 -1.198
-11.328 -10.825 -0.510
-13.730 -9.425 -4.598
-10.015 -10.314 0.238
-11.731 -10.602 -1.215
-10.599 -10.463 -0.466
-10.223 -10.170 -0.054
-8.098 -8.371 0.237
-8.040 -8.135 -0.011
-10.226 -10.153 -0.072
-11.329 -10.825 -0.511
-13.814 -8.488 -5.527
-9.572 -10.072 0.206
-9.434 -8.930 -0.490
-10.787 -10.630 -0.288
-10.139 -10.366 0.229
-11.732 -10.601 -1.217
-11.731 -10.604 -1.213
-13.699 -9.431 -4.563
-13.778 -9.419 -4.651
-9.458 -8.922 -0.522
-7.085 -7.235 0.135
-11.342 -10.826 -0.524
-10.826 -10.500 -0.456
-10.015 -10.314 0.240
-11.335 -10.828 -0.514
-10.218 -10.167 -0.052
-11.917 -10.278 -1.719
-11.675 -10.725 -1.035
-9.418 -8.654 -0.859
-13.743 -9.425 -4.612
-11.984 -10.269 -1.799
-9.420 -9.829 0.359
-9.462 -8.923 -0.526
-11.106 -10.437 -1.036
-11.106 -10.436 -1.036
-10.439 -9.407 -1.127
-10.896 -10.041 -1.021
-10.440 -9.406 -1.129
-9.227 -9.171 -0.097
-11.107 -10.436 -1.038
-10.943 -10.057 -1.031
-8.823 -10.324 1.389
-9.229 -9.188 -0.081
-8.444 -9.557 1.060
-11.109 -10.437 -1.041
-9.147 -9.164 -0.024
-8.822 -10.324 1.390
-8.283 -9.880 1.409
-8.838 -10.321 1.373
-10.955 -10.059 -1.041
-10.955 -10.059 -1.041
-9.082 -9.805 0.637
-8.868 -10.023 1.102
-9.854 -9.928 -0.430
-8.906 -9.824 0.828
-10.452 -10.127 -0.465
-10.511 -10.133 -0.508
-8.872 -10.000 1.074
-10.960 -10.059 -1.046
-10.960 -10.059 -1.046
-8.425 -9.549 1.070
-10.370 -10.444 -0.382
-9.695 -9.551 -0.203
-9.248 -10.293 0.996
-9.494 -10.222 0.684
-8.425 -9.549 1.070
-10.189 -3.297 -6.998
-10.052 -3.318 -6.840
-8.295 -9.498 1.156
-10.272 -9.937 -0.370
-10.559 -9.897 -0.802
-8.800 -9.434 0.586
-11.689 -7.595 -4.094
-8.424 -9.549 1.072
-8.760 -10.219 1.400
-8.905 -9.784 0.803
-9.249 -10.295 0.997
-9.249 -10.293 0.994