-10.181 -10.286 0.109
-8.538 -9.447 0.927
-10.181 -10.286 0.109
-8.763 -10.119 1.369
-8.556 -9.126 0.584
-10.485 -9.372 -1.106
-10.292 -10.586 0.310
-11.017 -10.137 -0.866
-10.984 -10.171 -0.799
-9.287 -10.523 1.251
-9.204 -9.456 0.269
-8.711 -9.558 0.854
-10.538 -10.080 -0.450
-8.704 -9.563 0.866
-9.089 -10.052 0.978
-9.531 -9.805 0.273
-10.590 -10.080 -0.500
-9.413 -10.394 0.999
-9.329 -9.550 0.220
-10.590 -10.080 -0.500
-10.590 -10.080 -0.500
-9.160 -10.292 1.146
-8.742 -9.837 1.111
-9.329 -9.544 0.215
-10.590 -10.080 -0.500
-10.231 -10.591 0.376
-10.628 -10.583 -0.030
-8.834 -9.457 0.640
-10.628 -10.583 -0.030
-10.166 -10.635 0.479
-9.089 -10.042 0.969
-8.704 -9.564 0.867
-10.922 -10.722 -0.191
-11.133 -10.063 -1.056
-10.491 -10.090 -0.394
-9.570 -10.148 0.594
-10.538 -10.080 -0.450
-10.491 -10.090 -0.393
-7.570 -8.027 0.471
-10.538 -10.080 -0.450
-9.457 -10.405 0.965
-9.311 -10.339 1.045
-10.478 -9.377 -1.094
-9.193 -9.459 0.282
-11.288 -9.851 -1.425
-9.193 -9.459 0.282
-8.921 -10.529 1.623
-9.296 -10.531 1.250
-9.296 -10.531 1.250
-8.311 -9.116 0.822
-7.712 -8.037 0.338
-8.791 -9.814 1.035
-10.551 -9.366 -1.179
-9.133 -9.459 0.343
-11.142 -10.059 -1.069
-11.290 -9.850 -1.428
-8.996 -9.339 0.359
-10.491 -10.090 -0.393
-10.115 -10.143 0.044
-8.703 -9.566 0.870
-11.142 -10.055 -1.072
-10.229 -10.590 0.377
-9.083 -10.234 1.167
-7.570 -8.027 0.470
-10.229 -10.590 0.377
-10.538 -10.080 -0.450
-8.674 -9.910 1.251
-8.674 -9.910 1.251
-8.639 -9.339 0.716
-10.491 -10.090 -0.393
-10.739 -9.890 -0.836
-9.195 -9.768 0.584
-9.701 -10.626 0.936
-8.835 -9.456 0.638
-10.847 -10.783 -0.059
-9.089 -10.039 0.966
-10.231 -10.390 0.175
-10.231 -10.390 0.175
-8.704 -9.564 0.867
-10.985 -10.176 -0.794
-10.929 -9.877 -1.112
-9.193 -9.459 0.282
-9.253 -9.982 0.732
-10.480 -9.375 -1.098
-9.030 -10.309 1.295
-10.984 -10.169 -0.801
-8.705 -9.562 0.863
-10.628 -10.583 -0.029
-10.230 -10.590 0.376
-10.985 -10.175 -0.796
-10.538 -10.080 -0.450
-8.312 -9.114 0.819
-10.231 -10.591 0.376
-9.456 -10.404 0.964
-9.083 -10.239 1.172
-8.444 -9.155 0.727
-10.114 -10.136 0.038
-9.572 -10.149 0.593
-11.133 -10.061 -1.057
-9.195 -9.459 0.280
-9.195 -9.768 0.584
-10.834 -10.738 -0.086
-9.135 -9.457 0.339
-9.065 -9.967 0.917
-10.773 -10.394 -0.369
-11.142 -10.056 -1.071
-8.310 -9.027 0.735
-9.618 -10.618 1.009
-8.835 -9.456 0.638
-8.963 -9.728 0.784
-9.457 -10.406 0.966
-9.085 -10.237 1.168
-9.195 -9.459 0.280
-8.705 -9.562 0.863
-11.133 -10.063 -1.055
-7.570 -8.027 0.470
-9.253 -9.982 0.732
-10.112 -10.140 0.043
-8.442 -9.157 0.732
-9.253 -9.982 0.732
-8.705 -9.561 0.863
-8.798 -9.564 0.773
-11.133 -10.071 -1.047
-8.705 -9.562 0.864
-10.980 -10.717 -0.254
-10.538 -10.081 -0.449
-10.478 -9.377 -1.094
-10.936 -10.716 -0.212
-8.791 -9.815 1.035
-10.985 -10.180 -0.791
-5.853 -7.153 1.309
-7.570 -8.027 0.470
-9.090 -10.051 0.976
-8.935 -10.532 1.613
-10.980 -10.717 -0.254
-10.936 -9.810 -1.113
-8.705 -9.563 0.865
-9.084 -10.009 0.936
-9.253 -9.982 0.732
-8.917 -10.528 1.626
-7.570 -8.027 0.470
-8.705 -9.561 0.863
-8.553 -9.124 0.587
-8.917 -10.527 1.626
-10.870 -9.802 -1.054
-10.904 -10.679 -0.213
-7.536 -8.496 0.956
-7.570 -8.026 0.470
-10.633 -10.748 0.125
-9.204 -10.610 1.400
-5.933 -6.919 1.000
-10.553 -9.370 -1.176
-10.984 -10.170 -0.800
-9.486 -10.047 0.568
-10.479 -9.376 -1.097
-10.479 -9.376 -1.097
-8.311 -9.115 0.820
-5.853 -7.152 1.309
-11.133 -10.060 -1.059
-9.037 -10.314 1.292
-8.920 -10.528 1.624
-9.165 -10.346 1.198
-10.479 -9.376 -1.095
-9.197 -10.608 1.405
-5.853 -7.154 1.310
-8.705 -9.562 0.864
-8.705 -9.562 0.864
-8.638 -9.339 0.718
-10.479 -9.375 -1.097
-8.748 -9.644 0.912
-8.705 -9.561 0.863
-10.984 -10.283 -0.686
-10.232 -10.390 0.175
-9.659 -10.884 1.235
-8.636 -9.341 0.721
-10.936 -10.716 -0.212
-7.571 -8.027 0.470
-9.060 -10.056 1.011
-9.170 -10.331 1.155
-9.194 -10.602 1.402
-10.936 -10.716 -0.212
-8.704 -9.565 0.867
-9.134 -10.007 0.889
-11.133 -10.063 -1.055
-8.975 -9.870 0.909
-10.229 -10.590 0.377
-9.415 -10.752 1.344
-8.311 -9.115 0.820
-10.488 -10.055 -0.425
-8.704 -9.563 0.866
-8.926 -10.530 1.619
-8.704 -9.563 0.866
-9.085 -10.067 0.997
-8.551 -9.127 0.592
-9.144 -9.227 0.097
-10.631 -10.750 0.128
-9.133 -9.459 0.342
-8.311 -9.114 0.820
-7.570 -8.027 0.471
-8.539 -9.441 0.919
-9.144 -9.227 0.097
-8.783 -8.844 0.071
-8.705 -9.562 0.863
-9.074 -9.967 0.908
-6.339 -6.856 0.522
-8.783 -8.844 0.071
-8.556 -9.123 0.583
-9.076 -9.966 0.906
-8.718 -10.441 1.741
-8.602 -9.628 1.043
-8.676 -9.908 1.248
-10.229 -10.590 0.377
-9.075 -9.966 0.907
-8.640 -9.340 0.715
-9.294 -10.530 1.250
-8.444 -9.156 0.729
-8.931 -10.532 1.615
-8.639 -10.038 1.413
-9.189 -9.995 0.821
-8.777 -10.310 1.534
-8.637 -9.342 0.721
-5.933 -6.919 1.000
-9.075 -9.966 0.907
-8.931 -10.531 1.615
-8.792 -9.814 1.033
-9.089 -10.050 0.976
-9.062 -9.969 0.923
-9.134 -10.007 0.889
-9.170 -9.987 0.820
-9.115 -10.123 1.024
-8.232 -9.332 1.117
-9.083 -10.237 1.170
-7.687 -8.203 0.525
-10.492 -9.366 -1.119
-9.261 -10.501 1.255
-9.109 -10.345 1.253
-9.187 -10.608 1.415
-7.534 -8.494 0.955
-9.475 -10.045 0.577
-5.931 -6.919 1.002
-8.813 -9.561 0.754
-9.076 -10.229 1.170
-7.572 -8.027 0.469
-7.572 -8.027 0.468
-11.014 -10.140 -0.861
-9.713 -10.124 0.427
-10.903 -10.670 -0.224
-8.967 -9.089 0.138
-9.611 -10.638 1.032
-7.572 -8.027 0.469
-8.710 -9.561 0.857
-9.475 -10.045 0.577
-9.610 -10.642 1.036
-10.675 -10.489 -0.174
-9.068 -10.053 0.991
-10.484 -9.373 -1.104
-8.734 -9.819 1.097
-5.853 -7.151 1.308
-9.612 -10.626 1.025
-9.080 -9.966 0.902
-11.025 -10.136 -0.874
-11.025 -10.134 -0.876
-9.199 -10.317 1.134
-10.489 -10.054 -0.426
-8.109 -9.916 1.825
-8.608 -9.998 1.406
-10.201 -10.269 0.071
-8.706 -9.563 0.863
-10.115 -10.137 0.038
-8.647 -9.343 0.711
-8.830 -9.459 0.646
-8.551 -9.126 0.591
-10.231 -10.591 0.376
-10.489 -10.054 -0.426
-10.740 -9.890 -0.836
-9.886 -10.380 0.511
-9.109 -10.782 1.680
-7.571 -8.027 0.470
-8.800 -9.565 0.772
-10.180 -9.154 -1.089
-11.021 -10.306 -0.700
-7.571 -8.027 0.470
-9.171 -10.331 1.153
-11.000 -10.648 -0.348
-10.228 -10.590 0.378
-8.931 -10.533 1.617
-9.077 -9.968 0.906
-11.029 -10.139 -0.875
-11.133 -10.060 -1.059
-10.481 -9.376 -1.098
-8.976 -9.870 0.909
-9.066 -9.968 0.917
-9.129 -9.226 0.110
-10.665 -10.715 0.057
-9.298 -10.534 1.251
-8.415 -9.446 1.048
-9.117 -9.233 0.126
-9.056 -10.243 1.203
-8.332 -9.127 0.813
-8.552 -9.126 0.591
-9.170 -10.331 1.154
-11.133 -10.064 -1.054
-9.648 -9.225 -0.411
-10.479 -9.376 -1.096
-8.611 -9.646 1.052
-9.725 -10.133 0.424
-8.603 -10.034 1.448
-8.647 -9.341 0.710
-8.275 -9.550 1.289
-7.960 -9.105 1.162
-9.034 -10.310 1.292
-8.595 -9.999 1.421
-9.094 -9.197 0.114
-10.303 -10.724 0.429
-8.583 -9.632 1.065
-8.929 -10.531 1.617
-8.783 -8.844 0.072
-8.708 -9.562 0.861
-11.029 -10.139 -0.875
-10.335 -10.672 0.343
-8.608 -10.005 1.413
-8.648 -9.340 0.709
-7.835 -9.137 1.320
-10.633 -10.749 0.125
-10.480 -9.375 -1.098
-8.708 -9.561 0.860
-9.156 -10.124 0.984
-10.201 -10.269 0.072
-10.478 -9.377 -1.094
-8.748 -9.423 0.692
-9.660 -10.667 1.011
-8.707 -9.564 0.864
-9.076 -9.968 0.908
-5.853 -7.151 1.308
-7.571 -8.025 0.468
-9.078 -9.966 0.903
-10.935 -10.716 -0.211
-10.920 -10.715 -0.196
-9.189 -9.988 0.814
-10.855 -9.821 -1.021
-10.648 -10.525 -0.111
-9.412 -9.894 0.497
-10.633 -10.749 0.126
-9.423 -9.893 0.485
-8.108 -9.275 1.180
-7.951 -9.064 1.131
-10.920 -10.715 -0.196
-9.172 -10.353 1.199
-8.968 -9.726 0.777
-9.168 -10.330 1.155
-9.076 -9.968 0.908
-10.488 -10.054 -0.426
-8.605 -9.628 1.040
-8.707 -9.563 0.863
-10.678 -10.473 -0.192
-10.856 -9.819 -1.024
-8.966 -9.728 0.781
-10.995 -10.290 -0.694
-5.853 -7.151 1.308
-9.078 -9.967 0.904
-10.113 -10.136 0.038
-8.706 -9.566 0.866
-10.201 -10.269 0.072
-9.141 -10.329 1.181
-9.024 -9.710 0.705
-8.965 -9.734 0.787
-10.856 -9.820 -1.022
-10.856 -9.820 -1.022
-9.935 -10.381 0.462
-9.140 -10.329 1.182
-8.610 -9.997 1.402
-8.829 -9.458 0.645
-9.164 -10.129 0.981
-8.926 -10.534 1.623
-8.609 -9.997 1.403
-10.208 -9.106 -1.092
-8.163 -10.370 2.223
-8.608 -9.996 1.403
-9.170 -10.350 1.197
-10.642 -10.726 0.091
-9.109 -10.118 1.012
-9.171 -9.987 0.819
-9.109 -9.227 0.128
-8.576 -8.997 0.438
-10.239 -10.133 -0.091
-10.804 -10.780 -0.015
-9.298 -10.611 1.316
-10.920 -10.715 -0.196
-7.960 -9.107 1.164
-8.595 -10.002 1.423
-10.582 -10.465 -0.114
-11.143 -10.061 -1.068
-8.708 -9.562 0.861
-11.029 -10.140 -0.875
-8.567 -10.039 1.489
-10.479 -9.376 -1.096
-10.920 -10.715 -0.195
-8.313 -9.117 0.821
-9.169 -10.331 1.155
-10.920 -10.715 -0.195
-5.853 -7.152 1.308
-8.597 -10.000 1.420
-8.643 -10.057 1.430
-9.094 -9.197 0.114
-7.571 -8.027 0.470
-10.664 -10.716 0.058
-9.124 -10.776 1.658
-10.647 -10.770 0.130
-7.571 -8.027 0.469
-10.935 -10.716 -0.211
-10.586 -10.701 0.112
-8.936 -9.886 0.967
-5.934 -6.918 0.998
-8.156 -10.368 2.229
-10.479 -9.376 -1.096
-10.920 -10.715 -0.195
-10.920 -10.715 -0.195
-9.171 -9.987 0.820
-8.575 -10.044 1.485
-8.598 -9.997 1.416
-9.078 -9.966 0.903
-9.028 -10.309 1.297
-9.168 -10.330 1.155
-10.113 -10.135 0.037
-9.138 -10.325 1.176
-7.951 -9.862 1.928
-8.707 -9.565 0.865
-8.936 -10.535 1.615
-9.196 -9.972 0.779
-11.071 -10.014 -1.043
-10.487 -9.377 -1.103
-10.632 -10.751 0.128
-9.428 -10.330 0.920
-7.896 -8.879 0.995
-10.478 -9.377 -1.094
-8.707 -9.563 0.863
-10.997 -10.171 -0.811
-8.280 -9.064 0.801
-10.979 -10.717 -0.253
-10.920 -10.715 -0.196
-10.855 -9.821 -1.020
-9.537 -9.176 -0.348
-8.934 -9.887 0.970
-10.550 -9.371 -1.173
-10.920 -10.715 -0.196
-9.075 -9.968 0.908
-10.920 -10.715 -0.195
-8.769 -10.095 1.327
-10.477 -9.378 -1.092
-10.477 -9.378 -1.092
-9.052 -9.999 0.962
-8.800 -9.564 0.771
-8.575 -10.016 1.457
-10.920 -10.715 -0.195
-9.098 -9.962 0.879
-9.115 -10.720 1.609
-5.853 -7.152 1.309
-8.577 -10.005 1.444
-8.707 -9.564 0.863
-10.919 -10.715 -0.195
-10.302 -10.723 0.429
-9.075 -9.968 0.908
-10.584 -10.624 0.051
-10.857 -9.819 -1.024
-10.635 -10.743 0.117
-10.871 -9.808 -1.049
-10.711 -10.276 -0.421
-8.894 -10.506 1.627
-8.601 -9.992 1.408
-5.852 -7.153 1.311
-8.581 -10.001 1.437
-7.925 -9.716 1.806
-10.646 -9.953 -0.680
-9.579 -10.598 1.022
-8.708 -9.555 0.854
-8.699 -10.243 1.560
-10.482 -9.371 -1.104
-9.258 -10.606 1.351
-10.920 -10.715 -0.195
-8.811 -9.424 0.630
-9.077 -9.970 0.908
-8.706 -9.562 0.863
-8.917 -10.529 1.627
-8.597 -10.008 1.428
-9.126 -9.226 0.114
-8.705 -9.564 0.865
-8.636 -9.995 1.375
-8.228 -9.335 1.124
-8.696 -9.540 0.849
-8.225 -9.031 0.822
-9.197 -10.335 1.131
-10.714 -9.390 -1.317
-10.644 -10.539 -0.094
-7.571 -8.027 0.469
-8.576 -10.001 1.441
-10.919 -10.715 -0.195
-7.961 -9.109 1.165
-8.941 -10.698 1.760
-8.599 -9.961 1.363
-8.966 -9.729 0.782
-10.919 -10.715 -0.195
-8.637 -9.957 1.319
-9.105 -10.121 1.020
-8.707 -10.247 1.557
-5.854 -7.152 1.308
-5.934 -6.918 0.998
-7.571 -8.027 0.469
-8.576 -10.008 1.448
-8.410 -10.313 1.905
-10.642 -10.788 0.155
-8.373 -9.576 1.199
-7.441 -6.941 -0.483
-8.701 -10.251 1.567
-10.476 -9.376 -1.092
-10.615 -10.699 0.094
-11.068 -10.014 -1.039
-9.103 -10.123 1.024
-10.476 -9.376 -1.094
-8.782 -8.844 0.072
-8.208 -10.370 2.179
-8.112 -9.276 1.176
-10.910 -10.648 -0.250
-8.613 -9.411 0.801
-8.913 -10.528 1.629
-9.118 -10.748 1.637
-9.098 -9.962 0.880
-8.543 -10.052 1.524
-8.731 -9.819 1.100
-10.662 -10.766 0.114
-8.741 -9.421 0.697
-10.477 -9.375 -1.095
-8.591 -9.257 0.680
-8.575 -10.004 1.446
-9.125 -10.779 1.661
-8.111 -9.276 1.178
-8.704 -9.561 0.864
-8.599 -10.002 1.419
-8.594 -10.003 1.425
-9.104 -10.123 1.022
-9.129 -10.337 1.202
-5.854 -7.151 1.308
-10.919 -10.715 -0.195
-8.930 -10.535 1.620
-8.594 -10.005 1.427
-10.919 -10.715 -0.195
-10.549 -9.370 -1.173
-8.784 -9.931 1.148
-6.839 -7.416 0.588
-10.855 -9.819 -1.022
-8.612 -9.863 1.263
-9.104 -10.123 1.022
-7.571 -8.026 0.468
-10.663 -10.715 0.058
-9.105 -10.123 1.021
-10.644 -10.556 -0.076
-8.730 -9.819 1.100
-8.616 -10.015 1.412
-7.572 -8.038 0.480
-8.451 -10.284 1.850
-7.902 -8.894 1.007
-10.854 -9.819 -1.021
-10.919 -10.715 -0.195
-10.475 -9.378 -1.090
-9.612 -9.183 -0.416
-6.772 -7.426 0.665
-10.474 -9.378 -1.089
-10.664 -10.715 0.058
-8.703 -9.562 0.866
-10.919 -10.715 -0.195
-8.400 -9.651 1.267
-8.076 -8.944 0.884
-8.621 -9.314 0.710
-10.549 -9.370 -1.173
-8.703 -9.563 0.867
-8.449 -9.648 1.216
-8.542 -10.020 1.493
-8.309 -9.031 0.740
-6.866 -7.430 0.575
-9.067 -10.127 1.063
-8.311 -9.114 0.821
-7.545 -8.047 0.514
-10.563 -9.371 -1.186
-10.919 -10.715 -0.195
-10.475 -9.378 -1.090
-8.566 -9.312 0.763
-8.574 -10.007 1.450
-8.930 -10.535 1.620
-8.583 -10.073 1.504
-7.835 -9.143 1.325
-5.854 -7.152 1.308
-7.571 -8.026 0.468
-8.930 -10.535 1.620
-6.867 -7.432 0.576
-8.796 -10.233 1.454
-10.295 -10.467 0.185
-10.474 -9.378 -1.089
-9.127 -9.228 0.114
-8.250 -9.335 1.102
-6.865 -7.408 0.553
-6.840 -7.422 0.592
-10.475 -9.378 -1.090
-8.928 -10.535 1.622
-8.702 -9.565 0.870
-10.919 -10.715 -0.195
-8.702 -9.564 0.868
-8.112 -9.284 1.185
-10.853 -9.821 -1.019
-7.571 -8.027 0.470
-8.232 -9.331 1.117
-9.663 -10.667 1.008
-8.020 -10.095 2.090
-8.309 -9.521 1.225
-8.705 -10.259 1.570
-10.919 -10.715 -0.195
-8.619 -10.440 1.839
-9.105 -10.123 1.021
-9.093 -9.197 0.115
-7.571 -8.027 0.469
-8.701 -9.565 0.870
-8.679 -10.642 1.978
-9.197 -10.335 1.132
-10.656 -10.771 0.126
-7.441 -6.941 -0.483
-8.681 -9.824 1.162
-10.656 -10.771 0.125
-10.852 -9.821 -1.017
-8.929 -9.864 0.951
-8.652 -10.437 1.803
-8.872 -10.705 1.836
-10.823 -9.745 -1.074
-10.474 -9.378 -1.089
-10.549 -9.370 -1.172
-6.875 -7.428 0.564
-10.855 -9.819 -1.022
-10.476 -9.376 -1.092
-8.568 -10.020 1.468
-8.952 -9.887 0.951
-10.855 -9.819 -1.021
-10.855 -9.819 -1.021
-10.855 -9.819 -1.022
-7.443 -7.887 0.453
-8.694 -9.561 0.873
-5.854 -7.150 1.306
-9.129 -10.337 1.201
-9.198 -10.335 1.131
-10.476 -9.376 -1.092
-9.162 -10.338 1.169
-10.854 -9.820 -1.021
-5.854 -7.152 1.308
-8.025 -9.274 1.262
-8.703 -9.563 0.867
-8.740 -9.422 0.700
-9.095 -9.195 0.112
-8.222 -9.584 1.376
-9.409 -10.616 1.217
-10.473 -9.378 -1.088
-8.929 -10.536 1.621
-10.474 -9.377 -1.089
-9.535 -9.176 -0.346
-8.078 -8.943 0.881
-9.105 -10.123 1.021
-5.934 -6.918 0.998
-8.222 -9.595 1.387
-8.541 -10.019 1.493
-5.390 -6.906 1.519
-8.928 -10.535 1.622
-8.498 -9.235 0.749
-10.919 -10.715 -0.195
-10.663 -10.715 0.059
-8.573 -10.008 1.452
-6.840 -7.426 0.597
-8.601 -10.003 1.418
-7.571 -8.027 0.469
-9.198 -10.335 1.130
-8.574 -10.030 1.472
-8.588 -10.006 1.434
-8.575 -9.994 1.435
-9.198 -10.335 1.131
-7.571 -8.027 0.469
-8.221 -9.567 1.360
-8.637 -9.994 1.373
-8.637 -9.995 1.374
-8.882 -9.660 0.795
-8.574 -10.017 1.460
-8.222 -9.563 1.355
-8.637 -9.996 1.374
-10.655 -10.774 0.129
-8.932 -9.888 0.972
-8.554 -10.607 2.055
-8.262 -9.583 1.335
-7.113 -7.654 0.556
-8.646 -9.495 0.853
-8.637 -9.995 1.374
-8.273 -9.312 1.035
-8.930 -10.535 1.621
-9.217 -10.688 1.474
-9.091 -10.124 1.036
-7.687 -8.203 0.526
-8.451 -9.642 1.207
-8.712 -9.938 1.242
-9.091 -10.124 1.036
-8.384 -9.566 1.179
-10.582 -10.759 0.187
-8.629 -9.993 1.380
-10.485 -9.368 -1.110
-8.570 -10.022 1.469
-8.333 -9.541 1.222
-8.941 -9.876 0.952
-8.892 -10.502 1.625
-8.583 -10.013 1.445
-8.625 -9.984 1.374
-7.266 -8.116 0.861
-9.083 -9.179 0.107
-8.713 -10.150 1.417
-8.226 -9.586 1.374
-8.713 -9.552 0.846
-10.864 -9.813 -1.037
-8.623 -9.993 1.386
-10.676 -10.761 0.094
-8.637 -10.033 1.398
-10.664 -10.760 0.105
-10.484 -9.368 -1.109
-10.484 -9.368 -1.109
-9.099 -10.125 1.029
-8.333 -9.543 1.224
-8.557 -10.027 1.487
-8.100 -8.923 0.839
-8.691 -10.629 1.952
-9.414 -10.615 1.211
-5.931 -6.918 1.001
-9.131 -10.332 1.194
-7.571 -8.027 0.469
-7.571 -8.005 0.448
-8.224 -9.576 1.365
-8.243 -9.322 1.096
-10.865 -9.813 -1.039
-10.865 -9.813 -1.039
-10.661 -10.762 0.110
-8.860 -9.716 0.873
-8.713 -9.552 0.846
-8.286 -9.307 1.017
-10.582 -10.758 0.185
-9.397 -10.653 1.264
-8.715 -9.552 0.843
-6.841 -7.424 0.593
-8.713 -9.553 0.848
-9.131 -10.334 1.197
-8.471 -9.637 1.182
-6.064 -6.184 0.131
-6.426 -7.146 0.734
-6.426 -7.146 0.734
-6.426 -7.146 0.734
-7.030 -8.175 1.135
-7.030 -8.175 1.135
-6.209 -7.085 0.879
-6.284 -7.402 1.113
-7.003 -8.182 1.168
-6.284 -7.402 1.114
-7.030 -8.175 1.135
-6.064 -6.182 0.130
-6.065 -6.170 0.116
-6.426 -7.146 0.734
-6.718 -8.022 1.301
-6.458 -6.955 0.502
-6.066 -6.144 0.090
-7.030 -8.175 1.135
-6.426 -7.146 0.734
-6.209 -7.086 0.881
-7.030 -8.175 1.135
-6.209 -7.084 0.879
-6.101 -6.209 0.120
-6.226 -7.403 1.172
-6.668 -8.050 1.369
-6.426 -7.146 0.734
-6.718 -8.022 1.301
-7.030 -8.175 1.135
-7.030 -8.175 1.135
-7.003 -8.182 1.168
-6.379 -7.142 0.778
-6.710 -8.008 1.295
-6.718 -8.022 1.301
-6.292 -7.079 0.791
-6.209 -7.085 0.880
-6.227 -7.406 1.175
-6.292 -7.084 0.796
-6.292 -7.081 0.794
-6.209 -7.085 0.880
-6.284 -7.402 1.114
-7.030 -8.175 1.135
-6.209 -7.085 0.879
-6.209 -7.085 0.880
-6.474 -7.111 0.644
-5.603 -7.262 1.654
-6.426 -7.148 0.737
-6.226 -7.117 0.882
-6.580 -7.507 0.935
-5.691 -8.354 2.611
-6.101 -6.192 0.103
-6.210 -7.085 0.879
-6.426 -7.148 0.737
-6.293 -7.083 0.794
-6.717 -8.022 1.302
-7.004 -8.182 1.167
-6.293 -7.082 0.794
-7.004 -8.182 1.167
-8.986 -9.162 0.188
-6.210 -7.086 0.880
-8.989 -9.155 0.179
-7.004 -8.182 1.167
-6.209 -7.085 0.880
-6.717 -8.021 1.302
-7.004 -8.182 1.167
-5.780 -7.120 1.346
-6.286 -7.404 1.113
-5.691 -8.353 2.610
-6.210 -7.085 0.880
-6.370 -6.249 -0.109
-6.170 -7.154 0.999
-7.004 -8.182 1.167
-6.210 -7.085 0.879
-8.985 -9.162 0.189
-8.985 -9.162 0.189
-8.988 -9.162 0.185
-5.780 -7.120 1.346
-5.780 -7.120 1.346
-7.030 -8.175 1.134
-6.721 -8.057 1.335
-6.439 -7.101 0.666
-6.370 -6.248 -0.110
-8.986 -9.162 0.189
-5.464 -7.079 1.627
-6.717 -8.022 1.303
-8.985 -9.158 0.185
-6.170 -7.154 0.999
-8.988 -9.162 0.185
-6.540 -7.382 0.839
-6.250 -6.944 0.695
-6.101 -6.202 0.112
-5.501 -6.791 1.308
-6.498 -7.288 0.787
-6.747 -8.008 1.259
-6.842 -8.244 1.396
-6.065 -6.153 0.099
-6.170 -7.154 1.000
-6.841 -8.245 1.398
-6.370 -6.249 -0.109
-6.499 -7.248 0.754
-6.841 -8.242 1.395
-6.210 -7.085 0.879
-7.004 -8.182 1.167
-6.170 -7.154 1.000
-5.501 -6.792 1.309
-5.815 -7.196 1.398
-6.715 -8.043 1.326
-6.210 -7.086 0.880
-6.825 -8.242 1.410
-5.640 -6.474 0.850
-8.654 -9.485 0.803
-8.979 -9.175 0.208
-8.985 -9.161 0.187
-6.293 -7.082 0.793
-6.065 -6.173 0.119
-6.209 -7.086 0.881
-5.607 -7.281 1.669
-6.712 -8.045 1.329
-6.170 -7.154 1.000
-5.779 -7.120 1.346
-7.004 -8.182 1.167
-6.414 -7.095 0.687
-5.780 -7.120 1.346
-6.845 -8.236 1.385
-6.845 -8.236 1.385
-6.170 -7.155 1.000
-6.560 -8.070 1.510
-5.770 -7.500 1.717
-6.229 -7.407 1.173
-6.561 -8.066 1.506
-6.065 -6.177 0.124
-6.840 -8.245 1.398
-6.738 -8.029 1.288
-5.770 -7.500 1.717
-5.770 -7.500 1.717
-7.030 -8.175 1.134
-5.877 -6.449 0.587
-5.456 -5.803 0.361
-6.517 -7.071 0.560
-5.771 -7.501 1.717
-6.285 -7.402 1.113
-7.003 -8.182 1.168
-7.098 -7.685 0.568
-6.426 -7.146 0.735
-6.712 -8.031 1.311
-6.992 -8.384 1.377
-9.499 -9.154 -0.333
-4.481 -6.721 2.240
-6.439 -6.991 0.559
-5.770 -7.500 1.717
-5.565 -7.178 1.618
-5.500 -6.792 1.310
-6.717 -8.022 1.302
-5.934 -7.024 1.105
-7.003 -8.182 1.168
-9.910 -10.270 0.363
-6.420 -7.389 0.966
-6.293 -7.083 0.795
-6.210 -7.086 0.880
-9.870 -10.293 0.420
-5.872 -7.278 1.411
-6.438 -7.128 0.693
-6.170 -7.154 1.000
-6.684 -8.016 1.333
-6.171 -7.154 0.999
-6.574 -8.127 1.554
-6.409 -6.251 -0.146
-6.745 -7.630 0.859
-6.473 -7.111 0.644
-6.842 -8.242 1.394
-5.616 -7.527 1.897
-6.065 -6.170 0.116
-6.170 -7.154 1.000
-8.986 -9.162 0.188
-6.101 -6.218 0.128
-6.170 -7.154 1.000
-6.370 -6.249 -0.109
-6.409 -6.252 -0.145
-5.501 -6.791 1.309
-6.782 -8.006 1.222
-6.332 -7.237 0.907
-6.347 -7.363 1.018
-9.508 -9.186 -0.310
-6.296 -7.399 1.101
-9.508 -9.184 -0.312
-9.508 -9.184 -0.311
-9.508 -9.181 -0.314
-6.139 -7.071 0.937
-6.520 -6.884 0.376
-6.525 -8.071 1.547
-6.680 -8.027 1.345
-6.344 -7.338 0.996
-6.669 -7.622 0.952
-6.333 -7.238 0.907
-7.013 -8.187 1.163
-6.374 -6.596 0.232
-9.502 -9.139 -0.350
-9.875 -10.092 0.222
-9.508 -9.184 -0.312
-9.459 -9.230 -0.219
-6.741 -7.622 0.880
-6.295 -7.240 0.961
-6.716 -6.366 -0.339
-5.377 -6.103 0.726
-6.493 -6.889 0.408
-7.039 -8.179 1.130
-6.255 -6.583 0.339
-8.279 -8.852 0.573
-6.960 -7.210 0.263
-6.741 -7.619 0.877
-6.888 -8.257 1.362
-9.930 -10.287 0.361
-6.451 -6.899 0.450
-8.524 -8.823 0.313
-8.539 -8.796 0.270
-5.722 -7.383 1.669
-6.256 -6.597 0.352
-10.593 -10.748 0.165
-6.009 -7.127 1.124
-8.594 -9.546 0.959
-5.852 -7.104 1.264
-5.528 -7.150 1.628
-6.865 -7.351 0.487
-9.914 -10.266 0.355
-6.101 -6.195 0.106
-6.065 -6.153 0.099
-5.377 -7.377 2.005
-5.878 -6.447 0.585
-4.931 -6.987 2.042
-6.823 -8.248 1.419
-6.286 -7.404 1.113
-6.561 -8.060 1.500
-6.105 -7.152 1.062
-8.103 -8.918 0.831
-8.988 -9.160 0.184
-6.063 -6.188 0.135
-5.855 -7.119 1.275
-6.717 -8.022 1.302
-8.989 -9.159 0.182
-6.409 -6.249 -0.147
-6.293 -7.082 0.794
-5.688 -6.959 1.287
-9.914 -10.266 0.355
-5.772 -7.500 1.715
-9.315 -10.269 0.955
-6.409 -6.252 -0.144
-4.931 -6.987 2.042
-8.596 -9.546 0.956
-6.100 -6.207 0.118
-5.619 -7.526 1.893
-5.502 -6.791 1.306
-5.604 -7.280 1.670
-7.003 -8.182 1.168
-9.913 -10.266 0.356
-8.624 -9.549 0.933
-5.855 -7.119 1.275
-6.209 -7.086 0.880
-6.551 -7.093 0.550
-4.931 -6.987 2.041
-5.855 -7.118 1.274
-6.408 -6.252 -0.144
-5.821 -6.553 0.741
-6.210 -7.086 0.880
-6.293 -7.083 0.794
-7.031 -8.175 1.134
-8.591 -9.547 0.963
-5.528 -7.274 1.742
-6.064 -6.175 0.122
-6.822 -8.250 1.421
-6.551 -7.093 0.550
-6.361 -6.980 0.632
-6.209 -7.086 0.881
-8.591 -9.545 0.961
-3.989 -6.866 2.891
-4.929 -6.986 2.043
-4.171 -6.912 2.740
-6.284 -7.403 1.115
-6.551 -7.094 0.550
-5.529 -7.275 1.741
-8.837 -9.875 1.055
-8.398 -9.194 0.808
-6.409 -6.252 -0.145
-6.384 -6.954 0.584
-6.747 -8.007 1.258
-5.743 -7.103 1.366
-6.210 -7.087 0.881
-6.721 -8.083 1.358
-8.466 -10.165 1.705
-6.286 -7.404 1.114
-4.481 -6.723 2.242
-5.897 -6.838 0.956
-6.209 -7.085 0.880
-6.100 -6.197 0.108
-5.714 -6.975 1.277
-8.953 -9.196 0.255
-8.561 -9.240 0.692
-5.664 -7.492 1.815
-9.319 -8.912 -0.429
-8.953 -9.201 0.260
-8.566 -9.242 0.690
-6.624 -7.508 0.868
-8.269 -8.283 -0.060
-5.503 -6.537 1.050
-5.607 -7.280 1.668
-5.615 -7.527 1.898
-6.314 -7.108 0.785
-7.596 -8.149 0.545
-8.987 -9.162 0.187
-8.982 -9.164 0.193
-5.900 -6.849 0.964
-9.895 -10.243 0.353
-5.909 -6.488 0.593
-5.770 -7.500 1.717
-6.286 -7.403 1.112
-6.293 -7.082 0.794
-5.650 -7.331 1.686
-5.906 -7.124 1.229
-5.650 -7.354 1.708
-8.590 -9.546 0.962
-6.065 -6.163 0.110
-6.438 -7.075 0.641
-4.874 -6.983 2.094
-8.954 -9.197 0.255
-5.529 -7.274 1.741
-5.511 -7.518 1.993
-6.716 -8.012 1.292
-10.587 -10.729 0.152
-5.541 -7.518 1.963
-6.742 -7.996 1.254
-5.540 -7.518 1.964
-6.409 -6.251 -0.145
-9.181 -10.582 1.402
-9.831 -10.216 0.391
-6.293 -7.081 0.793
-5.511 -7.518 1.992
-5.378 -7.377 2.004
-5.925 -6.486 0.574
-5.641 -7.339 1.703
-6.559 -8.074 1.516
-5.856 -7.132 1.287
-5.713 -6.979 1.282
-7.004 -8.182 1.167
-8.593 -9.546 0.960
-8.953 -9.194 0.254
-5.342 -6.795 1.470
-8.544 -9.234 0.701
-5.714 -6.961 1.263
-6.209 -7.085 0.880
-5.512 -7.518 1.991
-8.953 -9.192 0.251
-6.101 -6.196 0.107
-5.641 -6.484 0.859
-8.396 -9.203 0.818
-7.376 -7.891 0.524
-8.507 -10.046 1.554
-5.636 -7.327 1.695
-6.293 -7.082 0.793
-6.560 -8.074 1.514
-5.643 -7.348 1.709
-8.985 -9.162 0.189
-6.209 -7.084 0.879
-8.591 -9.548 0.964
-5.924 -6.485 0.575
-4.931 -6.987 2.041
-6.104 -7.153 1.064
-6.210 -7.086 0.881
-6.293 -7.083 0.795
-6.339 -6.856 0.520
-6.339 -6.856 0.520
-6.121 -7.222 1.117
-5.523 -6.877 1.364
-6.339 -6.856 0.520
-6.568 -7.730 1.179
-5.936 -7.211 1.292
-5.936 -7.211 1.292
-6.339 -6.856 0.520
-6.436 -7.740 1.322
-6.412 -7.738 1.344
-6.339 -6.856 0.520
-6.339 -6.855 0.520
-5.872 -6.438 0.574
-6.339 -6.856 0.520
-6.339 -6.855 0.520
-6.436 -7.740 1.322
-6.121 -7.222 1.117
-5.936 -7.211 1.292
-6.436 -7.740 1.322
-6.339 -6.855 0.520
-6.339 -6.856 0.520
-6.568 -7.731 1.181
-6.159 -7.266 1.121
-6.436 -7.740 1.322
-5.842 -6.824 0.986
-8.716 -9.550 0.842
-5.840 -6.825 0.989
-7.571 -8.026 0.469
-5.843 -6.824 0.985
-5.843 -6.824 0.985
-7.571 -8.026 0.469
-5.930 -6.919 1.003
-7.531 -8.486 0.952
-8.716 -9.550 0.842
-5.816 -7.107 1.293
-5.936 -7.211 1.292
-6.436 -7.740 1.321
-5.842 -6.824 0.986
-6.030 -7.266 1.251
-6.866 -7.926 1.078
-6.435 -7.735 1.318
-5.930 -6.919 1.003
-8.129 -8.762 0.635
-7.568 -7.177 -0.375
-7.568 -7.177 -0.375
-8.130 -8.755 0.627
-8.386 -9.565 1.175
-6.032 -7.243 1.228
-8.126 -8.756 0.631
-6.566 -7.735 1.187
-7.562 -7.176 -0.370
-6.602 -8.394 1.800
-6.460 -7.739 1.296
-6.744 -8.388 1.653
-7.562 -7.176 -0.370
-6.744 -8.388 1.653
-6.089 -7.296 1.196
-6.147 -7.276 1.144
-7.562 -7.176 -0.371
-5.592 -6.916 1.331
-7.562 -7.176 -0.371
-6.019 -7.872 1.867
-8.390 -9.565 1.170
-8.127 -8.754 0.629
-6.029 -7.012 0.987
-6.744 -8.388 1.653
-6.630 -7.766 1.152
-7.562 -7.176 -0.370
-6.147 -7.276 1.144
-6.434 -7.740 1.323
-6.624 -8.393 1.778
-6.655 -7.889 1.249
-6.029 -7.012 0.986
-6.655 -7.889 1.249
-6.617 -7.765 1.164
-8.390 -9.565 1.170
-6.019 -7.872 1.867
-6.680 -7.757 1.094
-6.661 -7.887 1.241
-5.998 -7.243 1.262
-6.460 -7.738 1.296
-6.023 -7.871 1.862
-5.590 -6.916 1.333
-6.276 -7.263 1.003
-6.022 -7.871 1.862
-6.638 -7.896 1.274
-6.602 -8.394 1.800
-6.744 -8.388 1.653
-6.632 -7.899 1.284
-7.562 -7.176 -0.371
-8.415 -9.318 0.920
-6.744 -8.388 1.653
-5.767 -6.911 1.152
-6.617 -7.765 1.165
-6.814 -7.941 1.145
-6.022 -7.277 1.270
-6.744 -8.388 1.653
-6.744 -8.388 1.653
-8.125 -8.760 0.637
-7.562 -7.176 -0.370
-5.734 -7.003 1.270
-8.547 -8.937 0.404
-6.197 -6.795 0.615
-6.834 -7.937 1.122
-6.742 -8.388 1.654
-8.390 -9.565 1.171
-6.434 -7.740 1.323
-6.099 -7.271 1.187
-5.995 -7.244 1.266
-6.608 -8.394 1.794
-6.744 -8.388 1.653
-6.655 -7.888 1.249
-6.628 -8.390 1.770
-6.078 -7.872 1.806
-6.023 -7.277 1.269
-6.023 -7.262 1.254
-8.491 -8.990 0.513
-6.743 -8.388 1.654
-7.238 -8.260 1.032
-6.760 -7.759 1.015
-10.383 -9.729 -0.648
-5.666 -7.959 2.308
-6.632 -8.385 1.761
-6.632 -8.385 1.761
-6.859 -7.925 1.084
-6.768 -8.378 1.619
-6.017 -7.845 1.842
-6.436 -7.727 1.309
-5.797 -6.863 1.071
-6.436 -7.728 1.309
-6.001 -7.258 1.271
-5.670 -7.956 2.301
-5.979 -7.851 1.885
-6.768 -8.378 1.619
-6.331 -6.855 0.528
-5.833 -6.824 0.995
-6.660 -7.885 1.240
-8.602 -9.548 0.951
-5.831 -6.825 0.998
-5.992 -7.258 1.280
-6.684 -7.874 1.206
-6.331 -6.855 0.528
-6.039 -7.264 1.239
-6.684 -7.879 1.211
-6.013 -7.846 1.846
-5.976 -7.851 1.889
-10.498 -9.366 -1.125
-6.663 -7.885 1.238
-6.769 -8.378 1.618
-6.860 -7.925 1.083
-8.539 -10.071 1.549
-6.204 -6.796 0.609
-6.769 -8.378 1.618
-6.711 -7.879 1.184
-6.624 -8.384 1.768
-6.048 -7.263 1.230
-5.942 -7.204 1.278
-6.253 -6.862 0.613
-6.013 -7.846 1.846
-6.041 -7.263 1.236
-6.771 -8.378 1.617
-5.937 -7.207 1.286
-5.937 -7.207 1.286
-7.288 -8.118 0.841
-6.771 -8.378 1.617
-6.771 -8.378 1.617
-6.204 -6.795 0.608
-6.771 -8.378 1.617
-6.077 -7.260 1.197
-6.041 -7.263 1.237
-6.253 -6.862 0.613
-5.938 -6.699 0.777
-5.929 -7.211 1.298
-6.842 -7.929 1.105
-6.766 -7.916 1.168
-6.029 -7.265 1.250
-5.982 -7.259 1.291
-6.766 -7.917 1.168
-5.917 -6.678 0.777
-6.771 -8.378 1.617
-6.771 -8.378 1.617
-6.039 -7.264 1.239
-6.039 -7.264 1.239
-6.032 -7.852 1.832
-8.717 -9.550 0.840
-5.798 -6.704 0.920
-6.077 -7.259 1.197
-6.690 -7.874 1.200
-5.831 -6.825 0.998
-6.438 -7.728 1.307
-6.041 -7.263 1.236
-5.693 -7.958 2.281
-6.690 -7.875 1.201
-6.842 -7.928 1.104
-6.203 -6.795 0.609
-6.016 -7.272 1.270
-6.201 -6.797 0.612
-6.771 -8.378 1.616
-6.635 -8.385 1.758
-7.465 -8.738 1.288
-8.276 -9.727 1.462
-6.580 -8.307 1.737
-7.229 -7.925 0.704
-8.240 -9.322 1.099
-10.402 -9.360 -1.035
-5.937 -7.209 1.288
-6.577 -7.757 1.196
-5.987 -7.259 1.287
-6.035 -7.266 1.245
-6.860 -7.925 1.083
-6.035 -7.851 1.829
-6.838 -7.929 1.108
-6.883 -7.752 0.887
-5.973 -7.852 1.892
-6.016 -7.845 1.843
-5.942 -6.686 0.761
-5.749 -6.732 0.998
-6.048 -7.263 1.230
-6.688 -7.874 1.201
-6.658 -7.899 1.257
-5.974 -7.205 1.247
-5.941 -7.204 1.280
-8.558 -10.030 1.489
-6.769 -8.378 1.618
-6.680 -7.875 1.211
-5.938 -7.205 1.283
-9.120 -10.338 1.212
-6.183 -6.793 0.627
-8.392 -9.505 1.118
-6.204 -6.795 0.608
-5.720 -6.730 1.024
-6.589 -7.841 1.255
-5.921 -7.216 1.312
-6.422 -7.761 1.357
-6.203 -6.797 0.611
-5.921 -7.216 1.312
-6.183 -6.793 0.626
-8.730 -10.251 1.537
-6.838 -7.928 1.108
-6.201 -6.802 0.618
-5.583 -6.589 1.023
-6.682 -7.888 1.222
-6.711 -7.876 1.181
-6.665 -7.881 1.232
-8.556 -9.983 1.444
-8.395 -9.554 1.165
-5.749 -6.733 0.998
-5.791 -6.729 0.953
-6.711 -7.879 1.184
-6.577 -7.753 1.191
-8.818 -10.502 1.699
-6.715 -7.876 1.177
-6.842 -7.929 1.105
-5.756 -6.705 0.964
-6.435 -7.733 1.315
-6.032 -7.852 1.832
-8.581 -10.023 1.457
-8.597 -9.551 0.960
-6.077 -7.259 1.196
-5.755 -6.837 1.086
-6.842 -7.928 1.104
-8.686 -10.331 1.657
-5.798 -6.703 0.919
-9.135 -8.777 -0.352
-6.933 -7.788 0.868
-6.933 -7.787 0.866
-7.054 -7.964 0.924
-7.227 -7.575 0.353
-9.022 -8.775 -0.241
-7.105 -8.123 1.032
-7.583 -8.389 0.814
-6.659 -7.719 1.075
-7.061 -8.200 1.147
-6.693 -7.810 1.132
-7.225 -7.614 0.394
-6.769 -7.822 1.072
-6.646 -7.721 1.090
-6.232 -7.722 1.501
-7.225 -7.611 0.391
-8.853 -8.800 -0.048
-7.055 -7.965 0.925
-9.021 -8.776 -0.239
-6.697 -7.807 1.125
-6.770 -7.820 1.069
-7.221 -7.570 0.354
-8.876 -8.800 -0.071
-6.932 -7.785 0.865
-7.085 -8.119 1.049
-7.208 -8.139 0.945
-6.697 -7.806 1.125
-7.220 -7.568 0.353
-9.021 -8.777 -0.239
-6.697 -7.807 1.126
-6.985 -7.763 0.791
-6.396 -7.370 0.992
-6.240 -7.721 1.492
-7.526 -7.841 0.321
-7.010 -7.761 0.767
-6.240 -7.721 1.492
-6.429 -7.378 0.966
-7.567 -8.405 0.846
-9.021 -8.776 -0.239
-6.887 -7.380 0.509
-7.054 -7.964 0.925
-6.659 -7.719 1.075
-7.618 -7.855 0.249
-6.116 -7.419 1.322
-8.876 -8.800 -0.070
-7.189 -8.133 0.957
-7.111 -8.134 1.037
-6.237 -7.727 1.502
-7.259 -8.156 0.911
-7.048 -7.970 0.936
-6.049 -7.745 1.713
-7.111 -8.135 1.038
-6.321 -7.369 1.066
-9.018 -8.777 -0.236
-6.776 -7.825 1.068
-6.694 -7.816 1.137
-7.259 -8.156 0.911
-7.837 -8.044 0.219
-7.190 -8.133 0.957
-8.874 -8.800 -0.068
-9.018 -8.777 -0.236
-8.874 -8.800 -0.068
-6.776 -7.825 1.068
-6.237 -7.727 1.502
-7.259 -8.156 0.911
-7.259 -8.156 0.911
-7.168 -7.994 0.825
-6.820 -7.614 0.804
-7.050 -7.970 0.934
-9.018 -8.777 -0.236
-7.049 -7.970 0.936
-7.632 -7.869 0.249
-6.694 -7.816 1.138
-7.527 -8.184 0.669
-6.394 -7.371 0.995
-8.879 -8.801 -0.072
-7.433 -8.023 0.589
-7.303 -8.155 0.866
-6.237 -7.727 1.502
-6.355 -7.377 1.040