-6.597 -6.735 0.139
-6.597 -6.735 0.139
-6.665 -6.713 0.049
-6.665 -6.713 0.049
-6.597 -6.735 0.139
-5.638 -5.829 0.193
-6.664 -6.713 0.049
-6.650 -6.803 0.153
-6.664 -6.713 0.049
-6.664 -6.713 0.049
-6.664 -6.713 0.049
-6.597 -6.735 0.139
-6.207 -6.519 0.313
-6.207 -6.519 0.313
-6.207 -6.519 0.313
-6.820 -6.226 -0.594
-6.820 -6.226 -0.594
-6.820 -6.226 -0.594
-6.315 -6.513 0.199
-6.820 -6.226 -0.594
-6.820 -6.226 -0.594
-6.820 -6.226 -0.594
-5.627 -5.831 0.206
-5.627 -5.831 0.206
-5.627 -5.831 0.206
-5.627 -5.831 0.206
-5.603 -5.598 -0.004
-5.624 -6.039 0.415
-5.603 -5.598 -0.004
-5.603 -5.598 -0.004
-5.603 -5.598 -0.004
-5.624 -6.039 0.415
-5.603 -5.598 -0.004
-5.624 -6.039 0.415
-6.666 -6.714 0.048
-6.601 -6.739 0.139
-6.601 -6.739 0.139
-5.625 -5.833 0.208
-6.640 -6.254 -0.386
-6.640 -6.254 -0.386
-6.640 -6.254 -0.386
-6.640 -6.254 -0.386
-6.811 -6.340 -0.469
-6.811 -6.340 -0.469
-6.811 -6.340 -0.469
-6.811 -6.340 -0.469
-6.811 -6.340 -0.469
-6.811 -6.340 -0.469
-6.811 -6.340 -0.469
-6.371 -6.482 0.111
-6.238 -6.509 0.271
-6.238 -6.509 0.271
-6.238 -6.509 0.271
-6.238 -6.509 0.271
-6.238 -6.509 0.271
-6.238 -6.509 0.271
-6.238 -6.509 0.271
-6.238 -6.509 0.271
-6.501 -6.213 -0.288
-6.501 -6.213 -0.288
-6.501 -6.213 -0.288
-6.501 -6.213 -0.288
-6.501 -6.213 -0.288
-6.501 -6.213 -0.288
-6.501 -6.213 -0.288
-6.210 -6.509 0.300
-6.657 -6.710 0.052
-6.441 -6.722 0.282
-5.551 -5.829 0.279
-5.551 -5.829 0.279
-5.615 -5.915 0.301
-5.615 -5.915 0.301
-5.615 -5.915 0.301
-5.615 -5.915 0.301
-5.615 -5.915 0.301
-5.615 -5.915 0.301
-5.615 -5.915 0.301
-5.615 -5.915 0.301
-5.488 -5.530 0.042
-5.615 -5.915 0.301
-5.615 -5.915 0.301
-5.615 -5.915 0.301
-5.615 -5.915 0.301
-5.615 -5.915 0.301
-6.441 -6.722 0.282
-6.237 -6.510 0.274
-6.658 -6.710 0.052
-5.550 -5.829 0.280
-5.550 -5.829 0.280
-6.208 -6.510 0.303
-5.551 -5.829 0.280
-6.501 -6.213 -0.288
-6.239 -6.509 0.270
-6.441 -6.722 0.282
-6.441 -6.722 0.282
-6.234 -6.507 0.273
-6.234 -6.507 0.273
-6.234 -6.507 0.273
-6.234 -6.507 0.273
-6.234 -6.507 0.273
-6.234 -6.507 0.273
-6.234 -6.507 0.273
-6.437 -6.091 -0.345
-6.658 -6.710 0.052
-6.658 -6.710 0.052
-6.501 -6.213 -0.288
-5.492 -5.520 0.029
-6.209 -6.509 0.301
-6.209 -6.509 0.301
-5.707 -5.813 0.108
-5.615 -5.915 0.300
-6.786 -6.705 -0.081
-5.553 -5.828 0.277
-6.211 -6.508 0.299
-5.553 -5.828 0.276
-5.553 -5.828 0.276
-5.553 -5.828 0.276
-5.553 -5.828 0.276
-6.676 -6.799 0.124
-6.676 -6.799 0.124
-6.676 -6.799 0.124
-6.676 -6.799 0.124
-6.676 -6.799 0.124
-6.676 -6.799 0.124
-6.676 -6.799 0.124
-6.676 -6.799 0.124
-6.676 -6.799 0.124
-6.249 -6.504 0.254
-5.492 -5.520 0.029
-5.492 -5.520 0.029
-5.492 -5.520 0.029
-5.492 -5.520 0.029
-5.492 -5.520 0.029
-5.492 -5.520 0.029
-5.492 -5.520 0.029
-5.492 -5.520 0.029
-5.492 -5.520 0.029
-5.492 -5.520 0.029
-5.492 -5.520 0.029
-5.492 -5.520 0.029
-5.492 -5.520 0.029
-5.492 -5.520 0.029
-5.492 -5.520 0.029
-5.492 -5.520 0.029
-6.674 -6.705 0.030
-6.674 -6.705 0.030
-6.674 -6.705 0.030
-6.674 -6.705 0.030
-6.674 -6.705 0.030
-5.616 -5.914 0.300
-5.708 -5.813 0.107
-6.503 -6.213 -0.289
-6.679 -6.708 0.030
-6.679 -6.708 0.030
-6.679 -6.708 0.030
-6.675 -6.799 0.124
-6.679 -6.708 0.030
-6.211 -6.508 0.298
-6.211 -6.508 0.298
-6.211 -6.508 0.298
-6.211 -6.508 0.298
-6.211 -6.508 0.298
-6.211 -6.508 0.298
-6.211 -6.508 0.298
-5.491 -5.521 0.029
-6.249 -6.504 0.254
-6.679 -6.708 0.030
-5.616 -5.915 0.300
-6.240 -6.508 0.269
-6.240 -6.508 0.269
-6.240 -6.508 0.269
-6.240 -6.508 0.269
-5.553 -5.818 0.265
-6.211 -6.508 0.299
-6.211 -6.508 0.299
-6.211 -6.508 0.299
-5.553 -5.818 0.265
-6.503 -6.213 -0.289
-6.447 -6.721 0.274
-6.447 -6.721 0.274
-6.447 -6.721 0.274
-5.552 -5.829 0.278
-6.438 -6.091 -0.346
-6.675 -6.705 0.030
-6.675 -6.705 0.030
-6.675 -6.705 0.030
-6.676 -6.799 0.124
-6.688 -6.092 -0.595
-6.688 -6.092 -0.595
-6.688 -6.092 -0.595
-6.688 -6.092 -0.595
-6.688 -6.092 -0.595
-6.688 -6.092 -0.595
-6.688 -6.092 -0.595
-6.676 -6.799 0.124
-6.574 -7.116 0.539
-6.574 -7.116 0.539
-6.574 -7.116 0.539
-6.574 -7.116 0.539
-6.371 -6.481 0.111
-6.371 -6.481 0.111
-6.371 -6.481 0.111
-6.438 -6.091 -0.346
-6.371 -6.481 0.111
-6.574 -7.116 0.539
-6.574 -7.116 0.539
-6.574 -7.116 0.539
-6.574 -7.116 0.539
-6.574 -7.116 0.539
-6.574 -7.116 0.539
-6.241 -6.508 0.267
-6.241 -6.508 0.267
-6.241 -6.508 0.267
-6.249 -6.501 0.252
-6.689 -6.180 -0.509
-6.689 -6.180 -0.509
-6.689 -6.180 -0.509
-6.689 -6.180 -0.509
-6.689 -6.180 -0.509
-6.689 -6.180 -0.509
-5.617 -5.914 0.298
-5.617 -5.914 0.298
-6.581 -7.114 0.530
-6.681 -6.703 0.021
-5.553 -5.827 0.276
-6.681 -6.703 0.021
-6.681 -6.703 0.021
-6.681 -6.703 0.021
-6.686 -6.706 0.021
-5.553 -5.827 0.276
-5.553 -5.827 0.276
-5.649 -5.823 0.175
-6.664 -6.713 0.049
-6.659 -6.710 0.051
-6.640 -6.736 0.097
-5.638 -6.037 0.400
-6.664 -6.713 0.050
-6.649 -6.803 0.154
-6.649 -6.803 0.154
-6.649 -6.803 0.154
-6.649 -6.803 0.154
-6.660 -6.710 0.050
-6.660 -6.710 0.050
-6.649 -6.803 0.154
-6.649 -6.803 0.154
-6.649 -6.803 0.154
-6.649 -6.803 0.154
-6.649 -6.803 0.154
-6.205 -6.520 0.316
-5.511 -5.828 0.317
-5.511 -5.828 0.317
-6.654 -6.245 -0.408
-6.654 -6.245 -0.408
-6.660 -6.710 0.050
-6.660 -6.710 0.050
-6.660 -6.710 0.050
-6.660 -6.710 0.050
-6.660 -6.710 0.050
-6.221 -6.140 -0.081
-6.178 -6.520 0.343
-5.992 -6.499 0.509
-5.992 -6.499 0.509
-5.992 -6.499 0.509
-5.992 -6.499 0.509
-5.992 -6.499 0.509
-6.659 -6.710 0.051
-5.598 -5.595 -0.002
-6.186 -6.137 -0.047
-5.632 -5.831 0.200
-5.597 -5.595 -0.002
-6.660 -6.710 0.050
-5.558 -6.103 0.546
-5.558 -6.103 0.546
-5.558 -6.103 0.546
-5.558 -6.103 0.546
-5.558 -6.103 0.546
-5.558 -6.103 0.546
-5.558 -6.103 0.546
-5.558 -6.103 0.546
-6.221 -6.140 -0.081
-6.186 -6.137 -0.047
-5.638 -6.038 0.401
-6.581 -6.810 0.230
-6.474 -6.089 -0.384
-6.474 -6.089 -0.384
-6.474 -6.089 -0.384
-6.474 -6.089 -0.384
-6.553 -7.120 0.565
-6.553 -7.120 0.565
-6.553 -7.120 0.565
-6.439 -6.087 -0.350
-6.243 -6.507 0.265
-6.234 -6.505 0.271
-6.663 -6.708 0.045
-5.187 -6.023 0.837
-6.560 -7.117 0.555
-6.560 -7.117 0.555
-5.918 -6.497 0.580
-6.665 -6.802 0.138
-6.665 -6.802 0.138
-6.665 -6.802 0.138
-6.665 -6.802 0.138
-6.665 -6.802 0.138
-6.665 -6.802 0.138
-6.665 -6.802 0.138
-6.665 -6.802 0.138
-6.792 -6.703 -0.089
-5.557 -5.827 0.271
-5.632 -5.913 0.282
-5.632 -5.913 0.282
-5.632 -5.913 0.282
-6.764 -6.718 -0.045
-6.764 -6.718 -0.045
-5.916 -6.497 0.582
-5.916 -6.497 0.582
-5.916 -6.497 0.582
-6.212 -6.507 0.295
-6.212 -6.507 0.295
-6.764 -6.718 -0.045
-6.764 -6.718 -0.045
-6.764 -6.718 -0.045
-6.764 -6.718 -0.045
-6.764 -6.718 -0.045
-6.683 -6.797 0.115
-6.683 -6.797 0.115
-6.683 -6.797 0.115
-6.212 -6.507 0.295
-5.977 -6.213 0.237
-6.515 -6.205 -0.309
-6.515 -6.205 -0.309
-6.515 -6.205 -0.309
-5.620 -5.921 0.301
-5.620 -5.921 0.301
-5.704 -5.810 0.108
-6.474 -6.089 -0.385
-7.297 -6.662 -0.633
-7.297 -6.662 -0.633
-6.195 -6.190 -0.004
-5.970 -6.209 0.240
-5.970 -6.209 0.240
-5.970 -6.209 0.240
-5.970 -6.209 0.240
-5.970 -6.209 0.240
-6.515 -6.205 -0.309
-6.582 -7.114 0.530
-5.923 -6.495 0.573
-5.923 -6.495 0.573
-5.561 -5.825 0.266
-5.561 -5.825 0.266
-5.561 -5.825 0.266
-5.561 -5.825 0.266
-5.561 -5.825 0.266
-5.561 -5.825 0.266
-5.561 -5.825 0.266
-5.842 -6.016 0.175
-5.842 -6.016 0.175
-5.842 -6.016 0.175
-5.842 -6.016 0.175
-6.484 -6.089 -0.394
-6.484 -6.089 -0.394
-6.764 -6.718 -0.045
-6.764 -6.718 -0.045
-6.764 -6.718 -0.045
-6.484 -6.089 -0.394
-6.484 -6.089 -0.394
-6.474 -6.089 -0.385
-6.474 -6.089 -0.385
-6.474 -6.089 -0.385
-5.608 -6.231 0.625
-5.608 -6.231 0.625
-5.608 -6.231 0.625
-5.608 -6.231 0.625
-5.608 -6.231 0.625
-5.608 -6.231 0.625
-5.608 -6.231 0.625
-5.608 -6.231 0.625
-6.581 -7.114 0.531
-6.581 -7.114 0.531
-6.581 -7.114 0.531
-6.581 -7.114 0.531
-6.581 -7.114 0.531
-6.581 -7.114 0.531
-6.581 -7.114 0.531
-6.244 -6.506 0.263
-5.496 -5.522 0.026
-5.645 -6.000 0.356
-5.645 -6.000 0.356
-5.645 -6.000 0.356
-5.645 -6.000 0.356
-5.645 -6.000 0.356
-5.645 -6.000 0.356
-5.645 -6.000 0.356
-5.537 -5.826 0.291
-5.537 -5.826 0.291
-5.899 -6.496 0.598
-6.680 -6.703 0.023
-5.866 -6.131 0.266
-5.632 -5.913 0.282
-5.632 -5.913 0.282
-5.843 -6.016 0.174
-6.574 -7.115 0.539
-5.496 -5.521 0.026
-5.496 -5.521 0.026
-5.496 -5.521 0.026
-5.921 -6.496 0.576
-5.843 -6.016 0.174
-5.702 -5.811 0.110
-6.197 -6.193 -0.003
-5.188 -6.020 0.833
-6.247 -6.505 0.258
-6.764 -6.718 -0.045
-6.764 -6.718 -0.045
-6.764 -6.718 -0.045
-6.484 -6.089 -0.394
-5.618 -5.922 0.304
-5.702 -5.811 0.111
-5.702 -5.811 0.111
-5.967 -6.210 0.244
-5.967 -6.210 0.244
-5.967 -6.210 0.244
-5.645 -6.000 0.356
-5.645 -6.000 0.356
-5.556 -5.827 0.272
-5.556 -5.827 0.272
-5.556 -5.827 0.272
-5.797 -6.217 0.421
-5.536 -5.103 -0.431
-5.536 -5.103 -0.431
-5.536 -5.103 -0.431
-6.681 -6.703 0.022
-6.515 -6.205 -0.309
-6.515 -6.205 -0.309
-5.803 -6.215 0.413
-5.803 -6.215 0.413
-6.582 -7.114 0.530
-6.582 -7.114 0.530
-6.582 -7.114 0.530
-6.582 -7.114 0.530
-6.582 -7.114 0.530
-5.535 -5.103 -0.431
-6.389 -6.476 0.087
-7.297 -6.662 -0.633
-7.297 -6.661 -0.635
-6.029 -6.200 0.173
-6.258 -6.499 0.241
-6.682 -6.797 0.116
-6.682 -6.797 0.116
-5.495 -5.521 0.026
-5.618 -5.921 0.303
-6.689 -6.180 -0.509
-5.840 -6.019 0.181
-5.840 -6.019 0.181
-6.687 -6.092 -0.594
-6.687 -6.092 -0.594
-6.687 -6.092 -0.594
-5.603 -6.240 0.638
-5.650 -6.006 0.357
-5.650 -6.006 0.357
-5.650 -6.006 0.357
-5.650 -6.006 0.357
-5.650 -6.006 0.357
-5.650 -6.006 0.357
-5.656 -6.031 0.376
-5.656 -6.031 0.376
-5.632 -6.029 0.398
-6.014 -6.491 0.478
-5.608 -5.594 -0.012
-5.608 -5.594 -0.012
-6.329 -6.504 0.174
-4.532 -4.137 -0.395
-4.532 -4.137 -0.395
-5.640 -5.828 0.190
-5.973 -6.261 0.289
-5.553 -5.572 0.019
-5.638 -6.037 0.399
-5.616 -6.035 0.420
-5.616 -6.035 0.420
-5.616 -6.035 0.420
-5.599 -5.595 -0.003
-5.616 -6.035 0.420
-5.993 -6.498 0.506
-5.615 -5.828 0.215
-5.615 -5.828 0.215
-4.532 -4.136 -0.395
-4.532 -4.138 -0.393
-5.635 -5.829 0.196
-5.635 -5.829 0.196
-5.635 -5.829 0.196
-5.635 -5.829 0.196
-6.317 -6.245 -0.071
-5.992 -6.499 0.507
-5.353 -6.067 0.715
-5.992 -6.499 0.507
-5.598 -5.595 -0.003
-5.598 -5.595 -0.003
-5.598 -5.595 -0.003
-5.598 -5.595 -0.003
-5.634 -5.829 0.197
-6.152 -6.251 0.100
-5.615 -6.035 0.421
-5.980 -6.263 0.285
-5.992 -6.499 0.508
-5.992 -6.499 0.508
-5.992 -6.499 0.508
-5.992 -6.499 0.508
-5.992 -6.499 0.508
-5.992 -6.499 0.508
-5.615 -6.035 0.421
-5.615 -6.035 0.421
-5.615 -6.035 0.421
-6.304 -6.508 0.206
-5.599 -5.595 -0.003
-5.599 -5.595 -0.003
-5.599 -5.595 -0.003
-5.599 -5.595 -0.003
-5.599 -5.595 -0.003
-5.599 -5.595 -0.003
-5.599 -5.595 -0.003
-5.599 -5.595 -0.003
-5.599 -5.595 -0.003
-5.616 -6.035 0.420
-5.353 -6.066 0.714
-6.334 -6.508 0.175
-5.616 -6.035 0.420
-5.599 -5.595 -0.003
-5.599 -5.595 -0.003
-5.599 -5.595 -0.003
-5.979 -6.262 0.284
-4.532 -4.137 -0.395
-5.993 -6.498 0.506
-5.353 -6.066 0.714
-5.353 -6.066 0.714
-5.635 -5.829 0.195
-5.635 -5.829 0.195
-5.599 -5.595 -0.003
-5.635 -5.829 0.195
-5.635 -5.829 0.195
-5.599 -5.595 -0.003
-5.611 -5.598 -0.012
-5.535 -5.103 -0.430
-5.535 -5.103 -0.430
-5.535 -5.103 -0.430
-6.894 -6.352 -0.541
-5.535 -5.103 -0.430
-6.894 -6.344 -0.549
-5.535 -5.103 -0.430
-5.535 -5.103 -0.430
-5.496 -5.521 0.025
-5.496 -5.521 0.025
-5.559 -5.826 0.268
-5.902 -6.495 0.595
-5.540 -5.826 0.287
-5.902 -6.495 0.595
-5.535 -5.103 -0.430
-5.535 -5.103 -0.430
-5.535 -5.103 -0.430
-5.535 -5.103 -0.430
-5.535 -5.103 -0.430
-5.535 -5.103 -0.430
-5.703 -5.811 0.109
-5.703 -5.811 0.109
-5.703 -5.811 0.109
-5.496 -5.521 0.025
-6.577 -7.116 0.537
-5.535 -5.103 -0.431
-6.071 -6.457 0.387
-6.577 -7.116 0.537
-5.619 -5.921 0.302
-5.619 -5.921 0.302
-5.619 -5.921 0.302
-5.619 -5.921 0.302
-5.619 -5.921 0.302
-5.619 -5.921 0.302
-5.619 -5.921 0.302
-5.703 -5.810 0.109
-5.619 -5.921 0.302
-5.619 -5.921 0.302
-5.619 -5.921 0.302
-6.814 -6.341 -0.471
-5.535 -5.103 -0.431
-5.962 -5.823 -0.139
-5.535 -5.103 -0.431
-6.587 -6.808 0.221
-5.535 -5.103 -0.431
-5.171 -5.898 0.727
-5.535 -5.103 -0.431
-6.175 -6.502 0.327
-5.703 -5.810 0.109
-6.577 -7.116 0.537
-5.497 -5.521 0.025
-5.497 -5.521 0.025
-5.497 -5.521 0.024
-5.497 -5.521 0.025
-5.535 -5.103 -0.431
-6.587 -6.808 0.222
-6.587 -6.808 0.222
-5.535 -5.103 -0.431
-5.535 -5.103 -0.431
-5.912 -6.498 0.587
-5.842 -6.016 0.175
-5.535 -5.103 -0.431
-6.070 -6.457 0.388
-6.287 -6.503 0.216
-6.287 -6.503 0.216
-6.287 -6.503 0.216
-6.287 -6.503 0.216
-5.188 -6.022 0.836
-5.920 -6.496 0.577
-5.920 -6.496 0.577
-6.287 -6.503 0.216
-5.535 -5.103 -0.431
-6.814 -6.338 -0.474
-6.813 -6.340 -0.471
-5.682 -5.810 0.129
-6.814 -6.342 -0.470
-6.814 -6.340 -0.472
-6.814 -6.339 -0.473
-5.535 -5.103 -0.431
-6.814 -6.339 -0.473
-6.814 -6.354 -0.459
-5.895 -6.022 0.127
-6.813 -6.339 -0.473
-5.535 -5.103 -0.431
-5.535 -5.103 -0.431
-6.577 -7.116 0.536
-6.577 -7.116 0.536
-6.577 -7.116 0.536
-6.577 -7.116 0.536
-5.535 -5.103 -0.431
-6.577 -7.116 0.536
-5.645 -6.000 0.356
-5.618 -5.921 0.304
-6.577 -7.116 0.537
-6.577 -7.116 0.537
-4.699 -4.992 0.294
-4.828 -4.615 -0.213
-4.828 -4.615 -0.213
-4.828 -4.615 -0.213
-4.828 -4.615 -0.213
-4.828 -4.615 -0.213
-4.828 -4.615 -0.213
-4.828 -4.615 -0.213
-4.828 -4.615 -0.213
-4.828 -4.615 -0.213
-4.828 -4.615 -0.213
-4.828 -4.615 -0.213
-4.828 -4.615 -0.213
-4.828 -4.615 -0.213
-4.828 -4.615 -0.213
-4.828 -4.615 -0.213
-4.828 -4.615 -0.213
-4.699 -4.992 0.294
-4.699 -4.992 0.294
-4.699 -4.992 0.294
-5.536 -5.103 -0.431
-5.646 -5.999 0.354
-5.646 -5.999 0.354
-4.699 -4.992 0.294
-4.699 -4.992 0.294
-4.699 -4.992 0.294
-4.699 -4.992 0.294
-4.699 -4.992 0.294
-4.828 -4.615 -0.213
-4.699 -4.992 0.294
-4.699 -4.992 0.294
-5.497 -5.521 0.024
-4.828 -4.615 -0.213
-4.828 -4.615 -0.213
-5.618 -5.921 0.304
-5.497 -5.521 0.024
-4.828 -4.615 -0.213
-4.828 -4.615 -0.213
-5.646 -5.999 0.354
-5.536 -5.103 -0.431
-4.828 -4.615 -0.213
-4.828 -4.615 -0.213
-4.828 -4.615 -0.213
-4.624 -4.963 0.339
-4.624 -4.963 0.339
-4.624 -4.963 0.339
-5.536 -5.103 -0.432
-4.700 -4.992 0.293
-4.700 -4.992 0.293
-5.536 -5.103 -0.431
-4.063 -4.797 0.735
-4.700 -4.992 0.293
-4.700 -4.992 0.293
-4.656 -4.991 0.337
-4.623 -4.963 0.340
-5.536 -5.103 -0.432
-5.647 -5.999 0.353
-4.655 -4.991 0.336
-4.828 -4.615 -0.213
-4.628 -4.723 0.096
-4.533 -4.137 -0.396
-4.533 -4.137 -0.396
-4.628 -4.723 0.096
-4.628 -4.723 0.096
-4.533 -4.137 -0.396
-4.628 -4.723 0.096
-4.533 -4.137 -0.396
-4.628 -4.723 0.096
-4.533 -4.137 -0.396
-4.533 -4.137 -0.396
-4.533 -4.137 -0.396
-4.628 -4.723 0.096
-5.607 -5.594 -0.012
-4.628 -4.723 0.096
-4.533 -4.137 -0.396
-4.533 -4.136 -0.396
-4.533 -4.137 -0.396
-4.533 -4.137 -0.396
-4.533 -4.137 -0.396
-4.533 -4.137 -0.396
-4.533 -4.137 -0.396
-4.533 -4.137 -0.396
-5.607 -5.594 -0.012
-5.607 -5.594 -0.012
-5.607 -5.594 -0.012
-5.607 -5.594 -0.012
-5.607 -5.594 -0.012
-5.607 -5.594 -0.012
-5.333 -6.055 0.723
-4.231 -4.922 0.693
-4.231 -4.922 0.693
-4.619 -5.000 0.382
-4.619 -5.000 0.382
-4.619 -5.000 0.382
-4.533 -4.137 -0.396
-4.533 -4.136 -0.397
-4.533 -4.137 -0.396
-4.533 -4.137 -0.396
-4.533 -4.137 -0.396
-4.533 -4.137 -0.396
-4.533 -4.136 -0.397
-4.533 -4.137 -0.396
-4.620 -5.000 0.382
-4.620 -5.000 0.382
-4.620 -5.000 0.382
-4.533 -4.137 -0.396
-4.614 -4.969 0.356
-4.614 -4.969 0.356
-4.620 -4.966 0.346
-4.600 -4.967 0.367
-3.901 -4.495 0.596
-4.600 -4.967 0.367
-5.608 -5.596 -0.011
-5.608 -5.596 -0.011
-4.630 -4.723 0.094
-4.630 -4.723 0.094
-4.527 -4.138 -0.389
-4.553 -4.987 0.435
-4.553 -4.987 0.435
-4.499 -4.142 -0.356
-4.499 -4.142 -0.356
-4.620 -4.966 0.346
-4.620 -4.966 0.346
-4.039 -4.616 0.578
-4.039 -4.616 0.578
-4.527 -4.138 -0.389
-4.630 -4.723 0.094
-4.630 -4.723 0.094
-4.630 -4.723 0.094
-4.630 -4.723 0.094
-4.630 -4.723 0.094
-4.630 -4.723 0.094
-4.630 -4.723 0.094
-4.630 -4.723 0.094
-4.630 -4.723 0.094
-4.630 -4.723 0.094
-4.630 -4.723 0.094
-4.630 -4.723 0.094
-4.630 -4.723 0.094
-5.607 -5.596 -0.011
-4.630 -4.723 0.094
-4.053 -4.841 0.790
-4.596 -4.968 0.372
-4.596 -4.968 0.372
-4.527 -4.138 -0.389
-4.527 -4.138 -0.389
-4.032 -4.618 0.587
-4.032 -4.618 0.587
-4.032 -4.618 0.587
-4.032 -4.618 0.587
-4.553 -4.989 0.437
-4.572 -4.992 0.421
-4.572 -4.992 0.420
-4.572 -4.992 0.420
-4.572 -4.992 0.420
-4.572 -4.992 0.420
-4.572 -4.992 0.420
-4.572 -4.992 0.420
-4.572 -4.992 0.421
-4.527 -4.138 -0.389
-4.527 -4.138 -0.389
-4.527 -4.138 -0.389
-4.032 -4.618 0.587
-4.054 -4.842 0.790
-4.054 -4.842 0.790
-4.054 -4.842 0.790
-4.054 -4.842 0.790
-4.054 -4.842 0.790
-4.054 -4.842 0.790
-5.975 -6.251 0.277
-6.012 -6.491 0.480
-4.595 -4.968 0.373
-4.630 -4.723 0.094
-4.630 -4.723 0.094
-4.031 -4.618 0.588
-4.031 -4.618 0.588
-4.031 -4.618 0.588
-4.031 -4.618 0.588
-4.031 -4.618 0.588
-4.031 -4.618 0.588
-4.621 -4.966 0.346
-4.621 -4.966 0.346
-4.621 -4.966 0.346
-4.621 -4.966 0.346
-4.621 -4.966 0.346
-4.621 -4.966 0.346
-4.253 -4.918 0.667
-4.253 -4.918 0.667
-4.253 -4.918 0.667
-4.253 -4.918 0.667
-4.253 -4.918 0.667
-4.253 -4.918 0.667
-4.253 -4.918 0.667
-4.253 -4.918 0.667
-4.039 -4.616 0.578
-4.039 -4.616 0.578
-4.039 -4.616 0.578
-4.039 -4.616 0.578
-4.527 -4.138 -0.389
-4.527 -4.138 -0.389
-4.527 -4.138 -0.389
-4.630 -4.723 0.094
-4.630 -4.723 0.094
-4.630 -4.723 0.094
-4.630 -4.723 0.094
-5.607 -5.596 -0.011
-4.499 -4.142 -0.357
-4.499 -4.142 -0.357
-5.629 -6.030 0.401
-4.630 -4.723 0.094
-4.630 -4.723 0.094
-4.630 -4.723 0.094
-4.630 -4.723 0.094
-4.630 -4.723 0.094
-5.339 -6.054 0.716
-6.012 -6.491 0.480
-4.250 -4.918 0.670
-4.527 -4.138 -0.389
-4.527 -4.138 -0.389
-4.527 -4.138 -0.389
-4.630 -4.723 0.094
-4.630 -4.723 0.094
-5.339 -6.054 0.716
-4.630 -4.723 0.094
-4.553 -4.989 0.436
-6.012 -6.491 0.480
-4.527 -4.138 -0.389
-4.032 -4.618 0.587
-5.975 -6.251 0.277
-5.607 -5.596 -0.011
-5.607 -5.596 -0.011
-5.607 -5.596 -0.011
-4.630 -4.723 0.094
-4.630 -4.723 0.094
-4.527 -4.138 -0.389
-4.527 -4.138 -0.389
-4.527 -4.138 -0.389
-5.339 -6.054 0.716
-5.339 -6.054 0.716
-4.630 -4.723 0.094
-4.630 -4.723 0.094
-4.630 -4.723 0.094
-6.012 -6.491 0.480
-6.012 -6.491 0.480
-5.339 -6.054 0.716
-4.039 -4.616 0.578
-4.039 -4.616 0.578
-5.629 -6.030 0.401
-5.629 -6.030 0.401
-5.629 -6.030 0.401
-5.629 -6.030 0.401
-5.629 -6.030 0.401
-5.607 -5.596 -0.011
-5.629 -6.030 0.401
-4.499 -4.142 -0.357
-4.499 -4.142 -0.357
-4.499 -4.142 -0.357
-4.499 -4.142 -0.357
-4.499 -4.142 -0.357
-6.012 -6.491 0.480
-6.012 -6.491 0.480
-5.339 -6.054 0.716
-5.339 -6.054 0.716
-6.012 -6.491 0.480
-5.339 -6.054 0.716
-4.630 -4.723 0.094
-4.630 -4.723 0.094
-4.630 -4.723 0.094
-4.630 -4.723 0.094
-4.630 -4.723 0.094
-4.621 -5.000 0.381
-3.978 -4.597 0.620
-3.987 -4.593 0.607
-4.533 -4.137 -0.396
-4.533 -4.137 -0.396
-6.012 -6.491 0.481
-5.335 -6.055 0.721
-4.533 -4.137 -0.396
-5.335 -6.055 0.721
-5.335 -6.055 0.721
-4.533 -4.136 -0.397
-4.586 -4.971 0.385
-4.586 -4.971 0.385
-4.041 -4.845 0.805
-4.041 -4.845 0.805
-6.012 -6.491 0.481
-5.608 -5.594 -0.013
-5.629 -6.029 0.401
-5.629 -6.029 0.401
-4.032 -4.618 0.588
-4.646 -5.002 0.357
-4.617 -4.970 0.353
-4.617 -4.970 0.353
-4.617 -4.970 0.353
-5.335 -6.054 0.721
-5.335 -6.055 0.721
-6.012 -6.491 0.481
-5.335 -6.054 0.721
-6.012 -6.491 0.481
-5.335 -6.055 0.721
-6.012 -6.491 0.481
-6.012 -6.491 0.481
-6.522 -6.803 0.281
-5.649 -5.823 0.175
-5.335 -6.055 0.721
-3.978 -4.597 0.620
-4.040 -4.844 0.806
-4.533 -4.137 -0.396
-6.012 -6.491 0.481
-4.614 -4.969 0.356
-4.614 -4.969 0.356
-4.620 -5.000 0.382
-4.614 -4.969 0.356
-4.614 -4.969 0.356
-4.614 -4.969 0.356
-4.620 -5.000 0.382
-6.012 -6.492 0.481
-4.627 -4.723 0.096
-4.727 -5.007 0.281
-4.614 -4.969 0.356
-4.614 -4.969 0.356
-4.614 -4.969 0.356
-4.614 -4.969 0.356
-4.614 -4.969 0.356
-5.981 -6.250 0.270
-5.981 -6.250 0.270
-4.533 -4.137 -0.396
-4.533 -4.137 -0.396
-4.533 -4.137 -0.396
-4.533 -4.137 -0.396
-4.533 -4.137 -0.396
-4.032 -4.618 0.587
-4.002 -4.850 0.850
-4.620 -5.000 0.382
-4.032 -4.618 0.587
-4.032 -4.618 0.587
-4.032 -4.618 0.587
-4.527 -4.138 -0.389
-4.527 -4.138 -0.389
-4.527 -4.138 -0.389
-5.629 -6.030 0.401
-4.032 -4.618 0.588
-4.499 -4.142 -0.357
-4.499 -4.142 -0.357
-4.499 -4.142 -0.357
-4.499 -4.142 -0.357
-4.499 -4.142 -0.357
-4.499 -4.142 -0.357
-4.054 -4.842 0.790
-4.054 -4.842 0.790
-4.032 -4.618 0.587
-4.250 -4.918 0.670
-5.339 -6.054 0.716
-6.012 -6.491 0.480
-5.339 -6.054 0.716
-6.012 -6.491 0.480
-6.012 -6.491 0.480
-6.012 -6.491 0.480
-6.012 -6.491 0.480
-6.012 -6.491 0.480
-5.629 -6.030 0.401
-5.629 -6.030 0.401
-5.607 -5.596 -0.011
-4.527 -4.138 -0.389
-4.620 -4.966 0.346
-4.620 -4.966 0.346
-4.620 -4.966 0.346
-4.620 -4.966 0.346
-4.620 -4.966 0.346
-4.553 -4.987 0.435
-4.553 -4.987 0.435
-4.553 -4.987 0.435
-4.553 -4.987 0.435
-5.340 -6.053 0.715
-4.554 -4.987 0.434
-4.554 -4.987 0.434
-4.630 -4.723 0.094
-5.340 -6.053 0.715
-4.527 -4.137 -0.390
-4.527 -4.138 -0.389
-4.527 -4.138 -0.389
-4.527 -4.138 -0.388
-4.630 -4.723 0.094
-4.630 -4.723 0.094
-4.630 -4.723 0.094
-4.630 -4.723 0.094
-5.340 -6.053 0.715
-6.012 -6.491 0.479
-6.012 -6.491 0.479
-6.012 -6.491 0.479
-4.630 -4.723 0.094
-4.031 -4.618 0.588
-5.629 -6.030 0.401
-5.607 -5.596 -0.011
-4.527 -4.138 -0.389
-4.630 -4.723 0.094
-4.630 -4.723 0.094
-4.630 -4.723 0.094
-4.052 -4.841 0.790
-4.031 -4.618 0.588
-4.031 -4.618 0.588
-3.969 -4.573 0.605
-4.052 -4.841 0.790
-3.969 -4.573 0.605
-4.630 -4.723 0.094
-4.630 -4.723 0.094
-4.001 -4.849 0.850
-5.516 -5.884 0.368
-5.516 -5.884 0.368
-5.516 -5.884 0.368
-5.516 -5.884 0.368
-6.012 -6.491 0.480
-5.242 -5.331 0.090
-4.630 -4.723 0.094
-4.527 -4.138 -0.388
-4.032 -4.618 0.587
-4.032 -4.618 0.587
-5.607 -5.596 -0.011
-5.975 -6.251 0.277
-4.595 -4.968 0.373
-4.054 -4.842 0.790
-5.607 -5.596 -0.011
-4.032 -4.618 0.588
-4.032 -4.618 0.588
-5.339 -6.054 0.716
-4.620 -4.966 0.346
-4.031 -4.618 0.588
-4.001 -4.850 0.850
-4.001 -4.850 0.850
-4.001 -4.850 0.850
-4.630 -4.723 0.094
-4.630 -4.723 0.094
-4.630 -4.723 0.094
-4.621 -4.966 0.346
-4.630 -4.723 0.094
-4.630 -4.723 0.094
-4.621 -4.966 0.346
-4.621 -4.966 0.346
-4.630 -4.723 0.094
-4.630 -4.723 0.094
-4.630 -4.723 0.094
-5.516 -5.884 0.368
-4.621 -4.966 0.346
-4.621 -4.966 0.346
-5.242 -5.331 0.090
-4.031 -4.618 0.588
-4.527 -4.138 -0.389
-4.032 -4.618 0.587
-4.032 -4.618 0.587
-4.032 -4.618 0.587
-4.620 -4.966 0.346
-4.620 -5.000 0.382
-4.032 -4.618 0.587
-3.464 -3.986 0.524
-6.012 -6.491 0.480
-6.012 -6.491 0.480
-6.012 -6.491 0.480
-4.572 -4.992 0.420
-4.572 -4.992 0.420
-4.620 -4.966 0.346
-4.527 -4.138 -0.389
-4.620 -4.966 0.346
-4.620 -4.966 0.346
-4.620 -4.966 0.346
-4.032 -4.618 0.587
-4.032 -4.618 0.587
-4.250 -4.918 0.670
-4.031 -4.618 0.588
-4.620 -4.966 0.346
-4.620 -4.966 0.346
-5.516 -5.884 0.368
-5.516 -5.884 0.368
-5.516 -5.884 0.368
-5.516 -5.884 0.368
-4.587 -5.395 0.809
-4.587 -5.395 0.809
-5.148 -5.948 0.801
-4.587 -5.395 0.809
-4.587 -5.395 0.809
-4.587 -5.395 0.809
-4.587 -5.395 0.809
-4.587 -5.395 0.809
-4.587 -5.395 0.809
-4.056 -4.841 0.787
-4.056 -4.841 0.787
-4.056 -4.841 0.787
-4.039 -4.616 0.578
-4.059 -4.842 0.785
-4.031 -4.618 0.588
-4.039 -4.616 0.578
-4.529 -4.911 0.383
-4.572 -4.906 0.335
-4.572 -4.906 0.335
-4.572 -4.906 0.335
-4.572 -4.906 0.335
-4.572 -4.906 0.335
-4.572 -4.906 0.335
-4.572 -4.906 0.335
-4.572 -4.906 0.335
-4.572 -4.906 0.335
-3.991 -4.530 0.540
-4.391 -4.779 0.388
-4.391 -4.779 0.388
-4.536 -4.909 0.373
-3.991 -4.530 0.540
-3.991 -4.530 0.540
-4.536 -4.909 0.373
-4.536 -4.909 0.373
-4.536 -4.909 0.373
-3.991 -4.530 0.540
-4.572 -4.906 0.335
-4.572 -4.906 0.335
-4.572 -4.906 0.335
-4.350 -4.777 0.428
-4.536 -4.909 0.373
-3.991 -4.530 0.540
-4.536 -4.909 0.373
-4.572 -4.906 0.335
-3.991 -4.530 0.540
-4.350 -4.777 0.428
-3.997 -4.522 0.526
-4.357 -4.775 0.418
-3.997 -4.522 0.526
-4.528 -4.907 0.379
-4.343 -4.775 0.432
-4.343 -4.775 0.432
-6.337 -6.235 -0.100
-3.997 -4.520 0.524
-4.534 -4.905 0.372
-6.460 -6.802 0.342
-3.806 -3.985 0.181
-6.335 -6.235 -0.099
-6.460 -6.802 0.342
-6.460 -6.802 0.342
-6.460 -6.802 0.342
-6.335 -6.235 -0.099
-6.335 -6.235 -0.099
-6.460 -6.802 0.342
-6.337 -6.235 -0.101
-6.337 -6.235 -0.101
-3.997 -4.521 0.525
-4.527 -4.137 -0.390
-4.527 -4.137 -0.390
-4.527 -4.137 -0.390
-4.527 -4.137 -0.390
-4.527 -4.137 -0.390
-3.997 -4.520 0.525
-6.337 -6.235 -0.100
-6.337 -6.235 -0.100
-6.460 -6.802 0.342
-6.337 -6.235 -0.100
-3.997 -4.520 0.524
-3.651 -4.084 0.435
-4.527 -4.137 -0.390
-4.527 -4.137 -0.390
-6.337 -6.235 -0.100
-4.527 -4.137 -0.390
-4.527 -4.137 -0.390
-4.527 -4.137 -0.390
-5.571 -5.994 0.424
-5.571 -5.568 -0.002
-4.527 -4.137 -0.390
-4.527 -4.137 -0.390
-5.571 -5.568 -0.002
-4.569 -4.902 0.334
-4.569 -4.902 0.334
-4.569 -4.902 0.334
-4.509 -4.140 -0.369
-4.509 -4.140 -0.369
-3.997 -4.520 0.525
-3.997 -4.521 0.525
-3.997 -4.520 0.525
-3.997 -4.521 0.525
-6.335 -6.235 -0.099
-5.953 -6.495 0.543
-5.955 -6.480 0.526
-3.807 -3.987 0.181
-5.957 -6.498 0.542
-6.460 -6.802 0.342
-4.533 -4.905 0.373
-4.087 -4.779 0.688
-4.087 -4.779 0.688
-4.087 -4.779 0.688
-5.570 -5.568 -0.002
-3.998 -4.782 0.780
-4.569 -4.902 0.334
-4.569 -4.902 0.334
-4.349 -4.777 0.428
-3.930 -4.592 0.663
-4.534 -4.905 0.372
-3.977 -3.842 -0.135
-3.997 -4.521 0.525
-3.997 -4.521 0.524
-4.350 -4.777 0.427
-4.527 -4.137 -0.390
-4.527 -4.137 -0.390
-4.527 -4.137 -0.390
-4.527 -4.137 -0.390
-4.527 -4.137 -0.390
-4.527 -4.137 -0.390
-4.527 -4.137 -0.390
-3.659 -4.470 0.810
-3.659 -4.470 0.810
-3.659 -4.470 0.810
-3.659 -4.470 0.810
-3.659 -4.470 0.810
-4.534 -4.905 0.372
-4.534 -4.905 0.372
-4.534 -4.905 0.372
-4.534 -4.905 0.372
-6.337 -6.235 -0.100
-4.569 -4.902 0.334
-4.087 -4.779 0.688
-3.806 -3.985 0.180
-6.335 -6.235 -0.099
-6.337 -6.235 -0.100
-4.087 -4.779 0.688
-6.335 -6.235 -0.099
-6.335 -6.235 -0.099
-6.335 -6.235 -0.099
-6.335 -6.235 -0.099
-6.161 -6.501 0.339
-6.337 -6.235 -0.100
-4.569 -4.902 0.334
-3.997 -4.520 0.525
-3.997 -4.521 0.525
-3.997 -4.520 0.524
-3.807 -3.986 0.181
-4.447 -4.804 0.357
-4.447 -4.804 0.357
-4.447 -4.804 0.357
-4.569 -4.902 0.334
-4.569 -4.902 0.334
-4.569 -4.902 0.334
-3.977 -3.842 -0.135
-4.534 -4.905 0.372
-6.337 -6.235 -0.101
-6.337 -6.235 -0.101
-6.337 -6.235 -0.101
-6.337 -6.235 -0.101
-4.087 -4.779 0.688
-4.087 -4.779 0.688
-4.087 -4.779 0.688
-4.569 -4.902 0.334
-3.998 -4.782 0.780
-3.998 -4.782 0.780
-3.998 -4.782 0.780
-3.752 -4.473 0.720
-3.752 -4.473 0.720
-4.569 -4.902 0.334
-4.569 -4.902 0.334
-4.569 -4.902 0.334
-6.337 -6.235 -0.101
-3.658 -4.470 0.811
-3.658 -4.470 0.811
-3.658 -4.470 0.811
-3.998 -4.782 0.780
-6.460 -6.802 0.342
-6.337 -6.235 -0.100
-6.337 -6.235 -0.100
-4.569 -4.902 0.334
-4.349 -4.777 0.428
-4.534 -4.905 0.372
-3.998 -4.782 0.780
-3.998 -4.782 0.780
-3.998 -4.782 0.780
-3.998 -4.782 0.780
-3.998 -4.782 0.780
-3.998 -4.782 0.780
-4.535 -4.905 0.370
-4.443 -4.803 0.360
-6.460 -6.802 0.342
-4.533 -4.905 0.373
-4.443 -4.803 0.360
-6.335 -6.235 -0.099
-3.998 -4.782 0.780
-4.527 -4.137 -0.390
-4.527 -4.137 -0.390
-4.443 -4.803 0.360
-3.658 -4.470 0.811
-3.658 -4.470 0.811
-3.658 -4.470 0.811
-4.569 -4.902 0.334
-4.569 -4.902 0.334
-3.998 -4.782 0.780
-3.806 -3.985 0.180
-3.806 -3.985 0.180
-4.569 -4.902 0.334
-3.997 -4.520 0.524
-3.997 -4.521 0.525
-4.000 -4.782 0.777
-4.000 -4.782 0.777
-6.102 -6.693 0.593
-6.529 -6.806 0.277
-4.472 -4.759 0.287
-3.820 -4.822 0.998
-3.820 -4.822 0.998
-3.820 -4.822 0.998
-4.235 -4.801 0.567
-4.235 -4.801 0.567
-3.733 -4.826 1.089
-5.984 -6.200 0.217
-4.514 -4.761 0.247
-4.514 -4.761 0.247
-4.514 -4.761 0.247
-4.514 -4.761 0.247
-4.514 -4.761 0.247
-4.514 -4.761 0.247
-4.514 -4.761 0.247
-3.733 -4.826 1.089
-3.733 -4.826 1.089
-5.901 -6.722 0.823
-5.984 -6.200 0.217
-5.984 -6.200 0.217
-5.984 -6.200 0.217
-5.984 -6.200 0.217
-5.984 -6.200 0.217
-5.984 -6.200 0.217
-5.984 -6.200 0.217
-5.984 -6.200 0.217
-5.984 -6.200 0.217
-3.759 -4.845 1.083
-3.759 -4.845 1.083
-3.759 -4.845 1.083
-4.233 -4.801 0.569
-3.707 -3.762 0.055
-3.707 -3.762 0.055
-5.900 -6.493 0.595
-4.409 -4.610 0.200
-4.409 -4.610 0.200
-5.984 -6.200 0.217
-5.984 -6.200 0.217
-5.984 -6.200 0.217
-5.984 -6.200 0.217
-5.983 -6.200 0.219
-5.984 -6.200 0.217
-5.984 -6.200 0.217
-5.984 -6.200 0.217
-5.984 -6.200 0.217
-5.984 -6.200 0.217
-5.984 -6.200 0.217
-4.514 -4.761 0.247
-4.514 -4.761 0.247
-4.514 -4.761 0.247
-4.514 -4.761 0.247
-4.514 -4.761 0.247
-4.514 -4.761 0.247
-4.473 -4.759 0.287
-4.514 -4.761 0.247
-4.514 -4.761 0.247
-4.571 -4.902 0.331
-4.571 -4.902 0.331
-4.297 -4.985 0.689
-4.297 -4.985 0.689
-6.102 -6.693 0.592
-4.440 -4.803 0.363
-4.440 -4.803 0.363
-4.440 -4.803 0.363
-4.443 -4.803 0.360
-4.569 -4.902 0.334
-3.777 -3.873 0.097
-5.991 -6.253 0.264
-4.569 -4.902 0.334
-4.569 -4.902 0.334
-4.569 -4.902 0.334
-4.569 -4.902 0.334
-4.087 -4.780 0.688
-4.569 -4.902 0.334
-3.998 -4.782 0.780
-3.998 -4.782 0.780
-4.569 -4.902 0.334
-4.569 -4.902 0.334
-4.569 -4.902 0.334
-4.569 -4.902 0.334
-4.569 -4.902 0.334
-4.024 -4.817 0.789
-4.569 -4.902 0.334
-4.569 -4.902 0.334
-3.861 -4.040 0.180
-5.935 -6.499 0.566
-3.977 -3.842 -0.135
-4.294 -4.798 0.505
-4.294 -4.798 0.505
-4.294 -4.798 0.505
-3.998 -4.782 0.780
-4.025 -4.817 0.789
-4.025 -4.817 0.789
-4.025 -4.817 0.789
-3.998 -4.782 0.780
-3.998 -4.782 0.780
-6.905 -6.374 -0.530
-4.489 -4.761 0.272
-6.207 -6.185 -0.021
-3.733 -4.826 1.089
-3.733 -4.826 1.089
-3.733 -4.826 1.089
-4.429 -4.783 0.355
-5.808 -6.205 0.398
-5.808 -6.205 0.398
-5.808 -6.205 0.398
-5.333 -5.831 0.499
-5.333 -5.831 0.499
-3.733 -4.826 1.089
-3.733 -4.826 1.089
-4.416 -4.784 0.368
-3.759 -4.845 1.083
-3.733 -4.826 1.089
-3.733 -4.826 1.089
-3.999 -4.521 0.523
-5.986 -6.200 0.215
-4.420 -4.785 0.365
-5.901 -6.493 0.592
-5.809 -6.205 0.398
-5.809 -6.205 0.398
-3.821 -4.821 0.996
-4.237 -4.803 0.567
-4.420 -4.784 0.365
-3.735 -4.826 1.086
-3.735 -4.826 1.087
-3.735 -4.826 1.087
-5.986 -6.200 0.215
-4.420 -4.785 0.365
-4.420 -4.785 0.365
-5.986 -6.200 0.215
-4.420 -4.785 0.365
-4.420 -4.785 0.365
-4.420 -4.785 0.365
-4.420 -4.785 0.365
-4.420 -4.785 0.365
-4.420 -4.785 0.365
-4.420 -4.785 0.365
-4.420 -4.785 0.365
-4.514 -4.761 0.247
-4.514 -4.761 0.247
-5.986 -6.200 0.215
-5.986 -6.200 0.215
-4.514 -4.761 0.247
-4.514 -4.761 0.247
-4.514 -4.761 0.247
-4.514 -4.761 0.247
-6.513 -7.129 0.614
-5.867 -6.495 0.630
-3.476 -4.109 0.634
-3.476 -4.109 0.634
-3.476 -4.109 0.634
-3.476 -4.109 0.634
-3.476 -4.109 0.634
-3.476 -4.109 0.634