-9.880 -10.198 0.322
-9.880 -10.198 0.322
-9.880 -10.198 0.322
-9.880 -10.198 0.322
-9.880 -10.198 0.322
-10.019 -10.241 0.226
-9.860 -10.208 0.352
-10.019 -10.241 0.226
-9.860 -10.208 0.352
-11.142 -9.951 -1.189
-11.421 -11.233 -0.184
-10.017 -10.243 0.229
-9.710 -10.217 0.511
-10.485 -11.080 0.599
-9.715 -10.211 0.500
-11.630 -11.184 -0.442
-10.274 -10.207 -0.064
-10.256 -11.328 1.076
-9.737 -10.210 0.477
-9.737 -10.210 0.477
-8.669 -8.695 0.027
-8.669 -8.695 0.027
-9.188 -9.757 0.565
-9.736 -10.210 0.478
-9.719 -10.209 0.495
-11.139 -9.879 -1.258
-11.139 -9.879 -1.258
-10.255 -11.329 1.077
-9.736 -10.211 0.479
-9.736 -10.211 0.479
-9.718 -10.210 0.496
-11.139 -9.879 -1.258
-9.718 -10.210 0.496
-11.139 -9.879 -1.258
-10.274 -10.207 -0.064
-10.515 -10.744 0.233
-9.719 -10.210 0.495
-10.542 -9.872 -0.668
-9.717 -10.211 0.498
-11.139 -9.879 -1.258
-11.139 -9.879 -1.258
-9.736 -10.211 0.479
-9.736 -10.211 0.479
-11.630 -11.184 -0.442
-10.733 -11.105 0.377
-9.716 -10.211 0.498
-9.716 -10.211 0.498
-9.716 -10.211 0.498
-11.139 -9.879 -1.258
-10.734 -11.104 0.374
-9.736 -10.211 0.479
-10.155 -9.905 -0.248
-8.667 -8.696 0.029
-9.437 -10.253 0.820
-9.437 -10.253 0.820
-11.630 -11.184 -0.442
-11.630 -11.184 -0.442
-11.630 -11.184 -0.442
-10.542 -9.873 -0.667
-9.734 -10.212 0.482
-9.734 -10.212 0.482
-9.734 -10.212 0.482
-8.666 -8.695 0.030
-9.186 -9.758 0.569
-9.734 -10.212 0.482
-9.186 -9.758 0.569
-9.716 -10.211 0.499
-11.139 -9.879 -1.258
-9.189 -9.757 0.564
-11.139 -9.879 -1.258
-11.365 -10.984 -0.379
-9.182 -9.761 0.575
-11.139 -9.879 -1.258
-9.718 -10.210 0.496
-9.736 -10.211 0.479
-9.648 -10.569 0.924
-10.068 -10.229 0.165
-10.068 -10.229 0.165
-10.328 -10.212 -0.112
-11.633 -11.183 -0.446
-11.141 -9.879 -1.259
-10.543 -10.734 0.193
-10.281 -10.206 -0.071
-9.728 -10.207 0.483
-9.728 -10.207 0.483
-9.728 -10.207 0.483
-9.447 -10.251 0.808
-9.728 -10.207 0.483
-9.728 -10.207 0.483
-10.543 -10.734 0.194
-11.905 -10.594 -1.307
-9.629 -10.226 0.602
-11.633 -11.183 -0.446
-11.383 -10.985 -0.397
-12.541 -9.688 -2.861
-11.863 -10.610 -1.250
-11.633 -11.183 -0.446
-11.141 -9.879 -1.259
-8.667 -8.696 0.029
-9.726 -10.208 0.486
-9.726 -10.208 0.486
-11.141 -9.879 -1.259
-11.141 -9.879 -1.259
-9.744 -10.209 0.469
-9.819 -9.963 0.145
-9.445 -10.252 0.812
-10.268 -11.331 1.066
-11.141 -9.879 -1.259
-9.933 -10.752 0.821
-11.904 -10.595 -1.306
-12.303 -9.534 -2.780
-12.303 -9.534 -2.780
-11.141 -9.879 -1.259
-9.190 -9.757 0.563
-10.543 -10.734 0.193
-11.633 -11.183 -0.446
-10.139 -9.905 -0.232
-10.745 -11.185 0.444
-10.745 -11.185 0.444
-10.258 -11.333 1.079
-11.141 -9.879 -1.259
-10.544 -9.872 -0.670
-10.202 -10.212 0.014
-11.141 -9.879 -1.259
-9.190 -9.757 0.563
-12.303 -9.534 -2.779
-9.925 -10.189 0.267
-10.543 -10.734 0.194
-9.725 -10.208 0.487
-10.745 -11.105 0.364
-11.141 -9.879 -1.259
-11.141 -9.879 -1.259
-10.504 -11.014 0.514
-10.269 -11.330 1.065
-10.269 -11.330 1.065
-9.662 -10.566 0.908
-9.188 -9.757 0.565
-9.971 -10.189 0.222
-11.633 -11.183 -0.446
-9.659 -10.567 0.912
-9.971 -10.190 0.223
-10.720 -11.109 0.393
-9.193 -9.755 0.558
-9.759 -10.205 0.451
-10.724 -11.109 0.389
-11.140 -9.879 -1.258
-10.548 -10.970 0.426
-10.548 -10.970 0.426
-11.371 -10.983 -0.387
-10.748 -11.106 0.363
-10.722 -11.111 0.393
-10.273 -11.330 1.061
-8.257 -8.866 0.612
-8.257 -8.866 0.612
-8.257 -8.866 0.612
-12.304 -9.533 -2.782
-9.928 -10.188 0.264
-11.385 -10.985 -0.398
-9.725 -10.209 0.488
-11.385 -10.985 -0.398
-10.722 -11.111 0.393
-10.264 -11.331 1.071
-9.727 -10.207 0.484
-9.727 -10.207 0.484
-11.385 -10.985 -0.398
-11.385 -10.985 -0.398
-9.742 -10.210 0.472
-11.140 -9.879 -1.258
-10.723 -11.111 0.392
-9.085 -8.405 -0.678
-11.140 -9.879 -1.258
-8.668 -8.696 0.029
-11.633 -11.183 -0.445
-9.743 -10.210 0.471
-9.940 -10.751 0.813
-9.743 -10.210 0.471
-9.185 -9.761 0.572
-10.271 -11.332 1.065
-9.136 -9.967 0.832
-9.725 -10.209 0.488
-10.043 -10.234 0.195
-10.542 -9.872 -0.669
-9.190 -9.757 0.563
-9.667 -10.563 0.899
-9.729 -10.207 0.482
-10.264 -11.331 1.070
-12.237 -10.600 -1.635
-10.459 -11.038 0.584
-11.140 -9.879 -1.258
-10.274 -11.330 1.060
-9.747 -10.208 0.465
-10.543 -9.872 -0.670
-12.302 -9.534 -2.779
-12.302 -9.534 -2.778
-10.156 -9.905 -0.248
-10.273 -11.330 1.061
-9.617 -9.938 0.323
-9.343 -10.264 0.924
-9.574 -10.574 1.003
-9.912 -10.757 0.848
-9.403 -10.933 1.534
-11.904 -10.595 -1.305
-12.302 -9.534 -2.779
-10.671 -11.144 0.477
-10.937 -10.998 0.065
-9.746 -10.207 0.465
-10.543 -9.872 -0.669
-9.746 -10.208 0.466
-10.548 -10.971 0.426
-10.548 -10.971 0.426
-10.164 -9.895 -0.268
-8.258 -8.868 0.613
-12.299 -9.531 -2.777
-9.640 -9.940 0.302
-8.257 -8.868 0.614
-11.633 -11.183 -0.445
-9.137 -9.967 0.831
-10.722 -11.111 0.394
-11.656 -9.839 -1.814
-9.742 -10.209 0.471
-11.386 -10.988 -0.397
-10.267 -11.335 1.071
-10.563 -9.886 -0.676
-12.273 -9.551 -2.733
-12.287 -9.540 -2.757
-9.614 -10.578 0.966
-9.660 -9.945 0.288
-12.273 -9.551 -2.732
-12.213 -10.606 -1.604
-9.347 -10.034 0.691
-9.924 -10.190 0.270
-12.278 -9.547 -2.741
-9.083 -8.405 -0.675
-9.083 -8.405 -0.675
-9.725 -10.208 0.487
-9.666 -10.563 0.900
-10.041 -10.234 0.197
-10.271 -11.332 1.065
-10.271 -11.332 1.065
-11.164 -9.891 -1.271
-9.754 -10.957 1.205
-9.893 -10.758 0.867
-11.386 -10.988 -0.397
-9.662 -10.564 0.905
-11.656 -9.839 -1.815
-9.579 -11.148 1.573
-11.105 -9.913 -1.190
-10.577 -9.956 -0.620
-9.513 -9.809 0.292
-9.513 -9.809 0.292
-9.136 -7.481 -1.652
-9.710 -10.552 0.845
-10.563 -9.953 -0.609
-10.190 -9.980 -0.208
-11.861 -10.612 -1.246
-12.224 -9.597 -2.636
-10.219 -11.344 1.128
-10.219 -11.344 1.128
-9.722 -10.542 0.823
-10.588 -9.878 -0.708
-9.187 -9.751 0.560
-9.675 -9.939 0.266
-9.356 -10.914 1.560
-9.675 -9.939 0.266
-9.675 -9.939 0.266
-12.227 -10.609 -1.616
-9.343 -10.035 0.697
-11.380 -10.989 -0.390
-9.727 -10.215 0.492
-9.081 -8.406 -0.673
-9.178 -9.763 0.581
-9.646 -9.947 0.303
-9.182 -9.976 0.795
-9.728 -10.214 0.490
-11.654 -9.839 -1.813
-10.252 -11.332 1.083
-9.647 -10.569 0.925
-9.714 -10.212 0.502
-9.554 -10.580 1.029
-9.182 -9.760 0.575
-9.662 -9.946 0.286
-9.329 -10.269 0.944
-11.163 -9.891 -1.270
-9.731 -10.213 0.486
-8.428 -9.260 0.836
-9.330 -10.269 0.943
-9.731 -10.213 0.486
-12.284 -9.541 -2.753
-9.615 -10.230 0.619
-9.081 -8.406 -0.672
-12.284 -9.541 -2.753
-12.284 -9.541 -2.753
-12.274 -9.549 -2.735
-9.082 -8.405 -0.674
-9.082 -8.405 -0.674
-11.623 -11.192 -0.426
-9.727 -10.215 0.491
-11.623 -11.192 -0.426
-10.563 -9.885 -0.676
-9.711 -10.213 0.506
-9.666 -9.948 0.284
-10.250 -11.334 1.088
-9.440 -10.947 1.511
-12.273 -9.551 -2.733
-12.273 -9.551 -2.733
-12.287 -9.540 -2.757
-9.614 -10.059 0.449
-9.429 -10.256 0.832
-9.728 -10.213 0.489
-9.910 -10.193 0.287
-9.496 -10.951 1.458
-9.645 -10.570 0.927
-11.656 -9.839 -1.814
-9.081 -8.406 -0.672
-9.179 -9.762 0.579
-9.179 -9.762 0.579
-9.731 -10.213 0.486
-12.210 -10.607 -1.600
-9.914 -10.192 0.282
-9.641 -9.943 0.303
-10.253 -11.331 1.082
-9.732 -10.212 0.484
-12.278 -9.547 -2.741
-12.291 -9.537 -2.765
-8.804 -9.236 0.436
-9.916 -10.760 0.846
-9.641 -9.943 0.304
-9.914 -10.192 0.282
-9.914 -10.192 0.282
-9.183 -9.759 0.573
-9.647 -10.569 0.925
-11.623 -11.192 -0.426
-9.175 -9.765 0.586
-9.325 -10.271 0.951
-12.276 -9.549 -2.738
-11.380 -10.989 -0.389
-8.622 -8.688 0.066
-12.286 -9.541 -2.755
-10.426 -11.044 0.623
-9.081 -8.406 -0.672
-10.241 -11.335 1.098
-12.286 -9.541 -2.755
-11.623 -11.192 -0.426
-9.427 -10.258 0.835
-9.427 -10.258 0.835
-9.648 -9.949 0.303
-9.648 -9.949 0.303
-8.621 -8.688 0.068
-7.331 -8.007 0.676
-9.441 -10.949 1.511
-9.910 -10.195 0.289
-9.326 -10.271 0.948
-9.753 -10.962 1.212
-10.186 -9.907 -0.277
-9.440 -10.947 1.510
-10.126 -11.150 1.028
-11.623 -11.192 -0.426
-9.081 -8.406 -0.672
-9.728 -10.214 0.490
-9.442 -10.948 1.510
-9.177 -9.764 0.583
-10.250 -11.334 1.088
-9.728 -10.214 0.490
-9.649 -9.949 0.302
-9.644 -10.570 0.929
-9.644 -10.570 0.929
-9.177 -9.764 0.583
-9.080 -8.406 -0.671
-9.728 -10.215 0.491
-9.728 -10.215 0.491
-9.177 -9.764 0.583
-9.177 -9.764 0.583
-9.728 -10.215 0.491
-9.185 -9.978 0.795
-9.177 -9.764 0.583
-9.185 -9.978 0.795
-9.909 -10.195 0.289
-12.276 -9.549 -2.738
-11.623 -11.192 -0.426
-9.727 -10.215 0.491
-6.411 -6.940 0.532
-8.621 -8.688 0.067
-12.285 -9.542 -2.752
-9.180 -10.145 0.969
-9.910 -10.194 0.289
-10.042 -9.911 -0.129
-10.185 -9.907 -0.276
-9.177 -9.763 0.582
-9.177 -9.763 0.582
-11.842 -10.618 -1.221
-9.910 -10.194 0.289
-9.179 -9.762 0.580
-9.729 -10.214 0.489
-9.080 -8.406 -0.671
-8.620 -8.689 0.069
-12.273 -9.551 -2.733
-8.903 -10.088 1.185
-9.660 -9.945 0.286
-10.037 -9.905 -0.131
-9.178 -9.762 0.580
-12.287 -9.540 -2.757
-11.623 -11.192 -0.426
-9.184 -9.978 0.796
-9.649 -9.949 0.302
-9.081 -8.406 -0.672
-9.742 -10.212 0.474
-10.041 -9.911 -0.128
-9.079 -8.405 -0.671
-9.177 -9.764 0.584
-7.331 -8.007 0.675
-9.177 -9.765 0.584
-9.444 -10.948 1.507
-6.410 -6.940 0.532
-6.410 -6.940 0.532
-9.185 -9.760 0.572
-10.163 -9.901 -0.260
-10.256 -11.332 1.081
-9.079 -8.405 -0.671
-8.249 -8.870 0.624
-9.430 -10.256 0.830
-8.563 -9.259 0.700
-9.180 -9.762 0.577
-9.640 -9.945 0.307
-9.732 -10.212 0.484
-9.558 -10.578 1.023
-8.625 -8.688 0.063
-9.175 -9.974 0.800
-9.431 -10.255 0.828
-10.037 -9.906 -0.130
-9.662 -9.946 0.285
-12.272 -9.551 -2.732
-11.622 -11.192 -0.426
-11.622 -11.192 -0.426
-9.183 -9.979 0.796
-9.176 -9.765 0.585
-10.042 -9.911 -0.130
-9.649 -10.567 0.921
-9.204 -9.979 0.777
-9.649 -10.567 0.921
-9.928 -10.858 0.933
-10.042 -9.911 -0.129
-10.042 -9.911 -0.129
-9.730 -10.214 0.488
-9.429 -10.257 0.831
-7.331 -8.007 0.675
-10.094 -11.107 1.017
-9.648 -10.567 0.922
-9.667 -9.951 0.285
-9.729 -10.214 0.488
-10.184 -9.907 -0.275
-9.650 -10.567 0.920
-9.177 -9.763 0.582
-8.621 -8.689 0.068
-9.174 -9.765 0.587
-9.649 -10.567 0.921
-9.729 -10.213 0.488
-9.729 -10.213 0.488
-12.282 -9.543 -2.749
-6.554 -7.174 0.617
-9.644 -10.244 0.604
-9.644 -10.244 0.604
-12.281 -9.543 -2.748
-10.577 -9.887 -0.688
-9.732 -10.213 0.485
-9.650 -10.566 0.920
-9.179 -9.762 0.579
-12.282 -9.543 -2.749
-9.168 -10.179 1.015
-9.644 -10.244 0.603
-10.440 -11.043 0.608
-6.964 -7.550 0.590
-9.730 -10.213 0.487
-12.282 -9.543 -2.749
-9.601 -10.581 0.983
-7.946 -8.922 0.979
-8.621 -8.689 0.068
-8.621 -8.689 0.068
-10.012 -10.932 0.922
-9.728 -10.214 0.490
-9.664 -9.948 0.286
-10.254 -11.333 1.083
-12.282 -9.543 -2.749
-9.664 -9.948 0.286
-9.960 -10.755 0.797
-9.079 -8.405 -0.671
-8.621 -8.689 0.068
-9.200 -9.978 0.779
-9.200 -9.978 0.779
-12.282 -9.543 -2.749
-9.645 -10.244 0.603
-12.282 -9.543 -2.749
-6.554 -7.174 0.617
-9.142 -7.478 -1.661
-9.142 -7.478 -1.661
-9.142 -7.478 -1.661
-9.549 -9.927 0.378
-9.616 -9.806 0.187
-9.141 -7.479 -1.659
-9.965 -10.746 0.782
-9.965 -10.746 0.782
-9.777 -11.139 1.366
-9.140 -7.479 -1.658
-10.334 -11.156 0.826
-9.985 -9.956 -0.028
-9.523 -9.803 0.276
-9.523 -9.803 0.276
-9.984 -9.956 -0.028
-9.984 -9.956 -0.028
-10.332 -11.158 0.830
-10.287 -11.332 1.049
-12.313 -9.515 -2.808
-9.621 -10.574 0.956
-8.915 -10.084 1.168
-12.312 -9.515 -2.807
-8.642 -8.690 0.048
-12.246 -9.500 -2.757
-8.644 -8.689 0.045
-9.601 -9.926 0.327
-9.196 -9.746 0.546
-12.315 -9.513 -2.812
-9.669 -10.231 0.565
-9.669 -10.231 0.565
-6.555 -7.174 0.617
-12.315 -9.513 -2.812
-10.046 -9.891 -0.154
-9.934 -10.754 0.821
-9.091 -8.404 -0.684
-8.642 -8.690 0.048
-9.754 -10.200 0.450
-10.004 -9.886 -0.117
-9.162 -9.953 0.792
-10.005 -9.886 -0.118
-9.195 -9.746 0.548
-9.195 -9.747 0.548
-9.937 -10.180 0.247
-9.937 -10.180 0.247
-9.377 -10.914 1.540
-12.312 -9.515 -2.808
-12.312 -9.515 -2.808
-12.312 -9.515 -2.808
-10.551 -9.864 -0.686
-8.640 -8.690 0.050
-9.163 -9.956 0.795
-8.640 -8.690 0.050
-9.191 -9.750 0.555
-7.334 -8.007 0.672
-9.191 -9.750 0.555
-9.625 -9.930 0.307
-9.194 -9.748 0.550
-9.090 -8.404 -0.683
-9.973 -10.750 0.779
-10.009 -9.889 -0.119
-8.640 -8.690 0.050
-10.564 -11.055 0.495
-9.753 -10.201 0.453
-9.146 -9.958 0.813
-9.606 -9.918 0.314
-9.973 -10.750 0.779
-9.090 -8.405 -0.682
-9.090 -8.405 -0.683
-10.009 -9.892 -0.116
-10.009 -9.892 -0.116
-9.193 -9.749 0.553
-7.334 -8.007 0.672
-9.193 -9.749 0.553
-12.307 -9.519 -2.799
-8.913 -10.092 1.179
-8.913 -10.093 1.180
-6.554 -7.174 0.617
-10.566 -9.866 -0.698
-10.010 -9.889 -0.120
-7.334 -8.007 0.672
-9.627 -9.929 0.303
-9.194 -9.748 0.550
-12.310 -9.517 -2.803
-9.668 -10.231 0.567
-9.356 -10.982 1.629
-12.309 -9.517 -2.803
-9.668 -10.231 0.567
-9.936 -10.181 0.248
-9.755 -10.200 0.449
-7.334 -8.007 0.673
-9.577 -10.571 0.997
-10.174 -9.885 -0.288
-9.166 -9.955 0.790
-9.196 -9.747 0.547
-9.166 -9.955 0.790
-9.196 -9.747 0.547
-10.010 -9.889 -0.120
-9.090 -8.405 -0.682
-8.640 -8.690 0.050
-9.166 -9.957 0.792
-10.010 -9.889 -0.120
-9.934 -10.754 0.821
-12.310 -9.522 -2.799
-10.004 -9.885 -0.118
-12.314 -9.514 -2.810
-9.698 -10.228 0.534
-8.915 -10.077 1.161
-12.313 -9.514 -2.809
-9.645 -9.927 0.284
-8.495 -9.244 0.752
-9.756 -10.199 0.448
-9.140 -9.951 0.812
-12.316 -9.512 -2.814
-9.600 -9.924 0.326
-9.646 -11.118 1.476
-12.316 -9.513 -2.813
-12.286 -9.541 -2.755
-8.917 -10.072 1.154
-8.917 -10.080 1.163
-12.316 -9.513 -2.813
-10.007 -10.764 0.759
-8.917 -10.082 1.164
-9.604 -9.925 0.323
-9.756 -10.199 0.448
-8.644 -8.689 0.045
-12.252 -9.583 -2.679
-9.939 -10.179 0.245
-10.278 -11.315 1.040
-10.278 -11.315 1.040
-9.199 -9.745 0.542
-9.972 -10.751 0.780
-9.092 -8.404 -0.686
-9.197 -9.746 0.545
-12.316 -9.512 -2.814
-9.599 -9.924 0.327
-12.317 -9.512 -2.815
-12.316 -9.512 -2.814
-8.917 -10.083 1.166
-9.092 -8.404 -0.686
-12.316 -9.512 -2.814
-10.234 -11.340 1.110
-8.917 -10.083 1.165
-8.917 -10.084 1.166
-9.670 -10.230 0.565
-9.599 -9.925 0.328
-9.197 -9.746 0.545
-9.197 -9.746 0.545
-9.197 -9.746 0.545
-9.138 -9.951 0.814
-12.316 -9.512 -2.814
-9.699 -10.228 0.533
-9.699 -10.228 0.533
-9.599 -9.925 0.328
-10.554 -10.735 0.185
-9.877 -10.765 0.890
-9.737 -10.210 0.476
-8.635 -8.688 0.053
-9.438 -10.252 0.818
-9.736 -10.210 0.478
-9.736 -10.210 0.478
-9.186 -9.758 0.569
-8.635 -8.688 0.053
-12.305 -9.525 -2.790
-9.087 -8.404 -0.680
-9.087 -8.404 -0.680
-9.919 -10.190 0.274
-9.132 -9.960 0.829
-10.258 -11.329 1.074
-6.411 -6.940 0.531
-9.740 -10.209 0.473
-9.959 -10.755 0.798
-9.197 -9.753 0.552
-12.305 -9.525 -2.790
-12.305 -9.525 -2.790
-9.994 -9.894 -0.099
-9.187 -9.757 0.566
-9.998 -10.927 0.932
-9.611 -9.935 0.326
-8.822 -8.974 0.150
-9.186 -9.757 0.567
-10.257 -11.330 1.077
-9.086 -8.404 -0.678
-8.633 -8.689 0.056
-9.992 -9.894 -0.097
-9.960 -10.755 0.796
-9.765 -10.209 0.449
-9.187 -9.757 0.566
-9.187 -9.757 0.566
-9.994 -9.894 -0.099
-9.765 -10.209 0.449
-9.611 -9.935 0.326
-9.187 -9.757 0.566
-10.258 -11.329 1.075
-10.258 -11.329 1.075
-9.736 -10.210 0.478
-10.258 -11.329 1.075
-9.086 -8.404 -0.679
-7.333 -8.007 0.674
-8.822 -8.974 0.150
-9.186 -9.757 0.567
-9.992 -9.894 -0.097
-9.186 -9.757 0.567
-9.148 -9.962 0.815
-8.822 -8.974 0.150
-9.952 -10.762 0.813
-10.064 -11.093 1.033
-12.300 -9.535 -2.775
-8.911 -10.068 1.156
-12.303 -9.527 -2.786
-12.303 -9.527 -2.786
-10.541 -9.872 -0.667
-9.765 -10.210 0.449
-9.155 -9.964 0.811
-9.188 -9.758 0.566
-7.333 -8.007 0.674
-9.155 -9.964 0.811
-9.188 -9.758 0.566
-9.615 -9.938 0.325
-10.257 -11.330 1.076
-10.257 -11.330 1.076
-9.651 -10.566 0.918
-12.299 -9.529 -2.779
-10.213 -11.355 1.145
-8.655 -8.968 0.311
-9.998 -9.898 -0.099
-9.154 -9.966 0.813
-9.997 -9.898 -0.098
-9.335 -10.267 0.936
-8.822 -8.974 0.150
-9.084 -8.405 -0.677
-9.615 -9.938 0.325
-8.822 -8.974 0.150
-9.575 -10.568 0.996
-9.186 -9.759 0.569
-10.257 -11.330 1.077
-9.185 -9.759 0.569
-9.616 -9.938 0.324
-9.547 -9.920 0.373
-9.960 -10.755 0.796
-8.631 -8.689 0.058
-9.735 -10.211 0.480
-9.960 -10.756 0.797
-9.735 -10.211 0.480
-10.257 -11.330 1.077
-9.183 -9.760 0.574
-9.735 -10.211 0.480
-9.528 -9.802 0.271
-9.966 -10.745 0.781
-10.548 -9.938 -0.609
-8.824 -8.971 0.146
-9.580 -10.568 0.991
-9.137 -7.480 -1.654
-9.406 -10.085 0.682
-12.308 -9.517 -2.801
-10.008 -9.889 -0.117
-9.193 -9.748 0.551
-9.193 -9.748 0.551
-8.826 -8.971 0.143
-9.942 -10.753 0.814
-9.194 -9.748 0.550
-10.010 -9.889 -0.119
-9.194 -9.748 0.550
-9.754 -10.200 0.450
-9.167 -9.956 0.790
-9.942 -10.753 0.814
-9.194 -9.748 0.550
-9.627 -9.930 0.305
-10.010 -9.889 -0.119
-10.277 -11.316 1.043
-10.010 -9.889 -0.120
-12.309 -9.517 -2.802
-9.621 -10.574 0.957
-9.191 -10.140 0.954
-8.817 -8.972 0.153
-9.696 -10.229 0.537
-12.308 -9.517 -2.801
-8.660 -8.966 0.304
-10.006 -10.765 0.760
-10.007 -10.764 0.758
-6.554 -7.174 0.617
-9.634 -10.050 0.420
-7.945 -8.427 0.483
-7.930 -8.167 0.241
-7.930 -8.167 0.241
-7.945 -8.427 0.483
-7.536 -8.057 0.524
-7.774 -8.505 0.734
-8.048 -8.434 0.388
-7.939 -8.422 0.485
-7.931 -8.167 0.239
-8.048 -8.434 0.388
-7.931 -8.167 0.239
-6.603 -6.919 0.321
-7.939 -8.422 0.485
-7.931 -8.167 0.239
-7.932 -8.167 0.238
-7.932 -8.167 0.238
-7.774 -8.505 0.734
-7.931 -8.167 0.239
-7.497 -8.051 0.557
-7.536 -8.057 0.524
-8.067 -8.710 0.648
-7.986 -8.191 0.209
-7.927 -8.177 0.253
-8.039 -8.441 0.404
-7.930 -8.429 0.500
-8.363 -8.699 0.340
-6.514 -7.151 0.641
-7.749 -8.513 0.768
-8.037 -8.443 0.408
-7.960 -8.182 0.226
-7.927 -8.424 0.498
-6.199 -7.159 0.964
-8.039 -8.441 0.403
-7.930 -8.429 0.500
-8.037 -8.433 0.397
-7.657 -8.758 1.104
-7.997 -8.444 0.448
-7.997 -8.444 0.448
-8.039 -8.441 0.403
-6.515 -7.151 0.640
-7.765 -8.512 0.750
-8.661 -8.529 -0.129
-7.940 -8.418 0.480
-8.039 -8.441 0.403
-8.039 -8.441 0.403
-8.039 -8.441 0.403
-8.039 -8.441 0.403
-8.039 -8.441 0.403
-8.037 -8.432 0.397
-6.127 -7.156 1.033
-7.931 -8.429 0.500
-8.039 -8.441 0.403
-7.941 -8.419 0.480
-8.039 -8.441 0.403
-7.931 -8.429 0.500
-7.931 -8.429 0.500
-7.864 -8.517 0.656
-7.765 -8.512 0.750
-7.765 -8.512 0.750
-7.927 -8.177 0.253
-7.927 -8.177 0.253
-7.881 -8.780 0.902
-7.927 -8.177 0.253
-7.938 -8.413 0.476
-7.765 -8.512 0.750
-8.290 -8.697 0.411
-8.290 -8.697 0.411
-7.765 -8.512 0.750
-7.960 -8.182 0.226
-8.039 -8.441 0.404
-7.765 -8.512 0.750
-7.765 -8.512 0.750
-7.765 -8.512 0.750
-6.199 -7.159 0.964
-7.448 -8.055 0.609
-7.927 -8.424 0.498
-7.939 -8.414 0.477
-7.927 -8.424 0.498
-7.939 -8.414 0.477
-7.927 -8.177 0.253
-8.047 -8.431 0.387
-7.440 -8.057 0.620
-7.657 -8.758 1.104
-8.039 -8.441 0.403
-6.569 -6.927 0.363
-8.120 -8.716 0.601
-8.126 -8.483 0.359
-7.766 -8.514 0.751
-6.599 -6.921 0.326
-7.766 -8.514 0.751
-7.930 -8.428 0.500
-7.930 -8.428 0.500
-8.040 -8.441 0.403
-8.040 -8.441 0.403
-7.953 -8.184 0.235
-8.290 -8.697 0.411
-7.925 -8.426 0.502
-7.749 -8.513 0.768
-7.925 -8.179 0.257
-8.726 -8.531 -0.192
-7.998 -8.444 0.448
-8.037 -8.432 0.397
-7.926 -8.177 0.254
-8.037 -8.432 0.397
-8.661 -8.529 -0.129
-8.040 -8.441 0.403
-7.941 -8.419 0.480
-8.047 -8.431 0.387
-8.661 -8.529 -0.129
-8.363 -8.698 0.340
-8.290 -8.697 0.411
-8.037 -8.443 0.408
-7.928 -8.431 0.504
-7.764 -8.516 0.756
-7.765 -8.512 0.750
-7.998 -8.444 0.448
-8.120 -8.717 0.601
-7.926 -8.177 0.254
-7.014 -7.319 0.307
-6.526 -7.125 0.602
-7.448 -8.055 0.609
-8.037 -8.433 0.397
-8.795 -8.541 -0.252
-7.751 -8.511 0.763
-8.363 -8.698 0.340
-8.658 -8.532 -0.124
-8.403 -8.569 0.168
-8.363 -8.698 0.340
-7.925 -8.179 0.257
-6.321 -7.164 0.847
-7.448 -8.055 0.609
-6.956 -7.315 0.361
-8.403 -8.565 0.163
-8.795 -8.541 -0.253
-7.960 -8.182 0.226
-8.290 -8.697 0.411
-8.290 -8.697 0.411
-8.037 -8.443 0.407
-8.037 -8.443 0.408
-7.749 -8.513 0.768
-7.936 -8.415 0.480
-7.881 -8.780 0.902
-8.290 -8.697 0.411
-7.998 -8.444 0.448
-8.290 -8.697 0.411
-7.925 -8.179 0.257
-6.514 -7.151 0.641
-6.505 -7.115 0.613
-8.795 -8.541 -0.252
-7.699 -8.439 0.743
-7.699 -8.439 0.743
-7.440 -8.056 0.620
-7.015 -7.319 0.306
-7.927 -8.176 0.253
-8.040 -8.441 0.403
-6.506 -7.115 0.612
-7.998 -8.444 0.448
-8.795 -8.541 -0.252
-6.854 -8.625 1.769
-8.046 -8.431 0.387
-8.037 -8.432 0.397
-8.126 -8.483 0.359
-7.941 -8.419 0.480
-7.926 -8.177 0.253
-7.926 -8.177 0.253
-8.681 -8.532 -0.147
-8.795 -8.541 -0.252
-8.120 -8.716 0.600
-7.440 -8.056 0.620
-8.040 -8.441 0.403
-8.040 -8.441 0.403
-7.960 -8.182 0.226
-7.437 -8.576 1.140
-7.440 -8.056 0.619
-8.681 -8.532 -0.147
-8.047 -8.431 0.387
-6.569 -6.927 0.363
-7.751 -8.511 0.763
-8.121 -8.715 0.599
-8.403 -8.564 0.163
-7.767 -8.513 0.749
-7.928 -8.423 0.498
-6.322 -7.164 0.845
-7.783 -8.561 0.777
-7.927 -8.176 0.253
-8.290 -8.697 0.411
-8.035 -8.434 0.401
-8.035 -8.435 0.401
-8.035 -8.434 0.401
-7.765 -8.512 0.750
-7.960 -8.182 0.226
-8.126 -8.483 0.359
-7.998 -8.444 0.448
-8.681 -8.532 -0.147
-7.657 -8.758 1.104
-7.927 -8.176 0.253
-7.440 -8.056 0.618
-8.040 -8.441 0.403
-8.040 -8.441 0.403
-8.047 -8.431 0.387
-6.569 -6.927 0.363
-7.931 -8.429 0.500
-8.037 -8.432 0.397
-8.363 -8.699 0.340
-7.881 -8.780 0.903
-6.199 -7.159 0.964
-6.599 -6.921 0.326
-8.661 -8.529 -0.129
-7.926 -8.177 0.254
-8.037 -8.433 0.397
-7.765 -8.512 0.750
-8.791 -8.541 -0.247
-8.038 -8.440 0.404
-7.883 -8.779 0.899
-8.661 -8.529 -0.129
-6.127 -7.156 1.033
-7.927 -8.427 0.502
-7.001 -7.320 0.321
-7.961 -8.182 0.225
-7.021 -7.154 0.131
-7.936 -8.411 0.476
-7.766 -8.512 0.749
-7.752 -8.511 0.762
-7.520 -8.002 0.485
-7.937 -8.413 0.477
-7.974 -8.329 0.357
-7.768 -8.513 0.749
-8.290 -8.697 0.411
-8.290 -8.697 0.411
-7.935 -8.415 0.482
-8.034 -8.434 0.402
-8.034 -8.434 0.402
-7.927 -8.430 0.505
-7.403 -8.051 0.650
-7.866 -8.517 0.655
-6.506 -7.115 0.613
-7.926 -8.423 0.499
-6.599 -6.921 0.326
-8.036 -8.432 0.398
-8.045 -8.430 0.387
-7.001 -7.320 0.321
-6.514 -7.151 0.641
-8.038 -8.440 0.404
-7.929 -8.428 0.501
-8.796 -8.541 -0.253
-8.796 -8.541 -0.253
-7.442 -8.057 0.618
-7.928 -8.177 0.252
-8.038 -8.440 0.404
-8.290 -8.697 0.411
-7.935 -8.415 0.482
-7.766 -8.512 0.749
-7.937 -8.413 0.478
-7.954 -8.184 0.234
-8.038 -8.440 0.404
-7.001 -7.320 0.321
-8.038 -8.440 0.404
-7.961 -8.182 0.225
-8.290 -8.697 0.411
-7.766 -8.512 0.749
-7.926 -8.423 0.499
-7.521 -7.532 0.014
-7.935 -8.415 0.482
-8.363 -8.699 0.340
-6.322 -7.164 0.846
-8.036 -8.442 0.408
-8.036 -8.442 0.408
-7.926 -8.179 0.257
-7.937 -8.421 0.485
-7.766 -8.512 0.749
-8.038 -8.440 0.404
-7.939 -8.419 0.481
-8.038 -8.440 0.404
-7.939 -8.419 0.481
-8.036 -8.432 0.398
-8.038 -8.440 0.404
-7.939 -8.419 0.481
-7.393 -8.363 0.974
-8.661 -8.529 -0.130
-7.928 -8.177 0.252
-7.928 -8.177 0.252
-7.928 -8.177 0.252
-8.682 -8.532 -0.147
-8.682 -8.532 -0.147
-8.661 -8.529 -0.130
-8.661 -8.529 -0.130
-8.682 -8.532 -0.147
-7.938 -8.417 0.481
-8.363 -8.699 0.340
-7.935 -8.415 0.482
-6.505 -7.116 0.614
-6.505 -7.116 0.614
-8.363 -8.699 0.340
-8.363 -8.699 0.340
-8.036 -8.442 0.408
-6.322 -7.164 0.847
-8.363 -8.699 0.340
-7.700 -8.440 0.742
-8.363 -8.699 0.340
-8.796 -8.541 -0.253
-8.363 -8.699 0.340
-6.563 -6.938 0.379
-7.953 -8.187 0.238
-8.034 -8.434 0.402
-8.682 -8.532 -0.147
-7.001 -7.320 0.321
-8.682 -8.532 -0.147
-8.363 -8.699 0.340
-8.682 -8.532 -0.147
-7.766 -8.512 0.749
-8.036 -8.432 0.398
-8.363 -8.699 0.340
-7.935 -8.415 0.482
-8.659 -8.532 -0.124
-8.796 -8.541 -0.253
-8.796 -8.541 -0.253
-7.442 -8.057 0.618
-6.323 -7.164 0.845
-6.323 -7.164 0.845
-8.045 -8.430 0.387
-6.506 -7.116 0.613
-8.661 -8.529 -0.130
-8.661 -8.529 -0.130
-8.682 -8.532 -0.147
-8.038 -8.440 0.404
-6.506 -7.116 0.613
-7.939 -8.419 0.481
-7.929 -8.428 0.501
-8.038 -8.440 0.404
-7.718 -8.510 0.795
-6.955 -7.316 0.362
-8.682 -8.532 -0.147
-6.566 -6.927 0.365
-8.036 -8.432 0.398
-7.996 -8.443 0.449
-6.199 -7.160 0.964
-7.940 -8.420 0.482
-7.395 -8.025 0.630
-7.302 -7.595 0.296
-7.302 -7.595 0.296
-7.387 -8.026 0.639
-7.387 -8.026 0.639
-6.893 -7.591 0.702
-9.142 -7.478 -1.661
-9.142 -7.478 -1.661
-7.388 -8.026 0.639
-7.388 -8.026 0.639
-9.142 -7.478 -1.661
-7.511 -8.017 0.507
-7.387 -8.026 0.639
-9.063 -7.472 -1.588
-9.063 -7.472 -1.588
-7.388 -8.026 0.639
-9.063 -7.472 -1.588
-6.274 -6.792 0.522
-7.283 -8.025 0.742
-9.534 -9.803 0.266
-9.534 -9.803 0.266
-9.060 -7.472 -1.584
-9.534 -9.803 0.266
-9.138 -7.478 -1.657
-7.283 -8.025 0.742
-7.383 -8.033 0.650
-9.533 -9.803 0.266
-6.816 -7.314 0.502
-9.138 -7.478 -1.657
-9.138 -7.478 -1.657
-7.383 -8.033 0.650
-10.256 -11.329 1.076
-7.383 -8.033 0.650
-7.281 -8.027 0.747
-9.533 -9.803 0.266
-6.782 -7.309 0.531
-9.138 -7.478 -1.657
-9.138 -7.478 -1.657
-7.284 -8.043 0.759
-7.284 -8.043 0.759
-7.284 -8.043 0.759
-12.331 -9.509 -2.832
-6.920 -7.551 0.635
-7.316 -8.018 0.703
-7.450 -8.012 0.563
-6.874 -7.521 0.651
-7.765 -8.245 0.484
-8.929 -9.006 0.078
-7.765 -8.245 0.484
-6.975 -7.546 0.575
-7.332 -8.002 0.671
-6.315 -6.786 0.475
-6.443 -7.294 0.855
-7.437 -8.004 0.567
-9.668 -10.231 0.568
-9.194 -10.138 0.948
-7.605 -7.578 -0.023
-9.198 -10.140 0.946
-6.386 -7.310 0.928
-6.554 -7.176 0.620
-6.871 -7.523 0.656
-6.932 -7.548 0.621
-9.665 -10.231 0.570
-6.871 -7.523 0.656
-6.932 -7.548 0.621
-6.294 -6.786 0.496
-6.977 -7.546 0.573
-9.199 -10.140 0.946
-9.199 -10.138 0.944
-7.279 -7.433 0.158
-6.852 -7.524 0.676
-6.811 -7.316 0.508
-7.431 -8.011 0.581
-7.431 -8.011 0.581
-7.431 -8.011 0.581
-6.817 -7.520 0.707
-6.817 -7.520 0.707
-7.331 -8.003 0.673
-6.811 -7.316 0.508
-7.335 -8.019 0.685
-7.316 -8.018 0.702
-6.315 -6.786 0.475
-7.431 -8.011 0.581
-6.874 -7.521 0.651
-6.974 -7.547 0.576
-10.231 -11.340 1.113
-7.349 -8.004 0.655
-7.827 -8.248 0.424
-6.975 -7.546 0.575
-6.875 -7.521 0.650
-6.875 -7.521 0.650
-8.929 -9.006 0.078
-6.936 -7.053 0.120
-7.306 -8.025 0.720
-6.936 -7.053 0.120
-9.492 -9.849 0.359
-9.077 -9.950 0.875
-6.936 -7.053 0.121
-6.381 -7.304 0.927
-6.381 -7.304 0.927
-9.200 -9.746 0.543
-9.200 -9.746 0.543
-8.929 -9.006 0.077
-6.812 -7.315 0.507
-6.936 -7.053 0.121
-6.936 -7.053 0.121
-6.894 -7.522 0.632
-6.857 -7.522 0.669
-6.429 -7.297 0.872
-6.859 -7.521 0.666
-10.275 -11.314 1.043
-10.275 -11.314 1.043
-7.888 -8.209 0.323
-7.442 -8.004 0.562
-6.932 -7.548 0.621
-7.888 -8.209 0.323
-7.888 -8.209 0.323
-6.429 -7.297 0.872
-6.801 -7.521 0.724
-6.934 -7.548 0.618
-9.142 -7.478 -1.661
-7.388 -8.026 0.639
-7.681 -7.987 0.310
-9.142 -7.478 -1.661
-6.919 -7.035 0.119
-10.256 -11.329 1.076
-6.311 -7.351 1.045
-9.063 -7.472 -1.587
-9.063 -7.472 -1.587
-6.428 -7.314 0.890
-7.388 -8.026 0.639
-7.388 -8.026 0.639
-6.750 -7.553 0.807
-6.782 -7.309 0.531
-7.761 -8.030 0.272
-6.753 -7.544 0.795
-7.125 -7.648 0.525
-7.823 -8.248 0.428
-6.773 -7.550 0.781
-9.138 -7.478 -1.657
-7.300 -8.027 0.727
-6.782 -7.309 0.531
-6.186 -6.810 0.628
-7.284 -8.043 0.759
-7.510 -8.034 0.525
-6.899 -7.592 0.697
-9.138 -7.478 -1.657
-9.138 -7.478 -1.657
-6.782 -7.309 0.531
-8.937 -9.006 0.069
-6.857 -7.594 0.741
-8.931 -9.006 0.075
-7.125 -7.648 0.525
-6.759 -7.556 0.800
-6.759 -7.556 0.800
-7.830 -8.032 0.206
-8.123 -8.799 0.679
-7.761 -8.245 0.487
-9.533 -9.803 0.266
-6.773 -7.550 0.780
-8.931 -9.006 0.075
-6.274 -6.792 0.522
-6.782 -7.309 0.531
-8.931 -9.006 0.075
-7.823 -8.248 0.428
-7.383 -8.033 0.650
-6.782 -7.309 0.531
-6.782 -7.309 0.531
-6.274 -6.792 0.522
-6.774 -7.549 0.779
-6.774 -7.549 0.779
-6.774 -7.549 0.779
-6.436 -7.311 0.879
-6.919 -7.035 0.119
-6.274 -6.792 0.522
-6.774 -7.549 0.779
-6.774 -7.549 0.779
-7.763 -8.246 0.487
-6.774 -7.549 0.779
-6.919 -7.035 0.119
-6.260 -6.794 0.538
-10.256 -11.329 1.076
-7.287 -8.023 0.736
-7.383 -8.033 0.650
-6.773 -7.550 0.781
-6.816 -7.314 0.502
-6.919 -7.035 0.119
-6.951 -7.055 0.108
-6.951 -7.055 0.109
-7.830 -8.032 0.206
-8.931 -9.006 0.075
-8.931 -9.006 0.075
-9.059 -7.472 -1.584
-7.125 -7.648 0.525
-6.295 -6.792 0.501
-9.534 -9.803 0.266
-6.782 -7.309 0.531
-8.931 -9.006 0.075
-7.041 -7.559 0.521
-6.807 -7.547 0.744
-6.816 -7.314 0.502
-7.128 -7.646 0.520
-6.807 -7.547 0.744
-6.816 -7.314 0.502
-7.510 -8.034 0.524
-7.761 -8.030 0.273
-9.138 -7.478 -1.657
-7.761 -8.030 0.273
-7.266 -8.042 0.776
-6.816 -7.314 0.502
-7.285 -8.043 0.759
-7.823 -8.248 0.428
-7.383 -8.033 0.650
-6.919 -7.035 0.119
-9.063 -7.472 -1.588
-6.782 -7.309 0.531
-7.829 -8.032 0.206
-7.829 -8.032 0.206
-9.060 -7.472 -1.585
-9.060 -7.472 -1.585
-6.389 -7.317 0.932
-7.762 -8.246 0.487
-8.931 -9.006 0.075
-7.887 -8.209 0.325
-8.123 -8.799 0.679
-10.256 -11.330 1.078
-7.760 -8.248 0.490
-6.753 -7.544 0.795
-8.525 -9.408 0.887
-11.817 -10.589 -1.224
-8.929 -9.006 0.077
-6.508 -7.181 0.672
-7.824 -8.032 0.211
-7.739 -8.023 0.288
-7.824 -8.032 0.211
-6.295 -6.787 0.496
-6.970 -7.548 0.583
-7.767 -8.246 0.482
-9.355 -10.043 0.692
-7.731 -8.020 0.292
-8.929 -9.006 0.077
-6.508 -7.181 0.672
-5.822 -6.183 0.363
-6.852 -7.529 0.681
-6.810 -7.315 0.509
-6.810 -7.315 0.509
-7.824 -8.032 0.211
-8.929 -9.006 0.077
-6.796 -7.528 0.736
-7.824 -8.032 0.211
-8.535 -9.408 0.877
-6.295 -6.787 0.496
-8.929 -9.006 0.077
-8.543 -9.409 0.870
-8.929 -9.006 0.077
-7.739 -8.264 0.528
-6.295 -6.787 0.496
-7.346 -8.003 0.657
-7.824 -8.032 0.211
-6.863 -7.525 0.665
-8.535 -9.408 0.877
-6.295 -6.787 0.496
-7.731 -8.020 0.292
-6.867 -7.523 0.660
-7.427 -8.012 0.586
-6.810 -7.315 0.509
-7.311 -8.019 0.708
-7.756 -8.029 0.277
-7.756 -8.029 0.277
-6.444 -7.294 0.854
-6.444 -7.294 0.854
-9.974 -10.773 0.801
-6.900 -7.522 0.626
-7.734 -8.021 0.290
-6.316 -6.786 0.474
-8.929 -9.006 0.077
-8.929 -9.006 0.077
-6.295 -6.787 0.496
-6.511 -7.179 0.666
-7.427 -8.012 0.586
-8.929 -9.006 0.077
-7.307 -8.023 0.716
-7.766 -8.245 0.483
-5.826 -6.182 0.359
-7.824 -8.032 0.211
-7.766 -8.246 0.483
-6.397 -7.300 0.908
-8.929 -9.006 0.077
-7.864 -8.031 0.170
-6.863 -7.525 0.665
-9.974 -10.772 0.800
-8.929 -9.006 0.077
-6.845 -7.520 0.679
-6.511 -7.179 0.666
-7.864 -8.031 0.170
-7.864 -8.031 0.170
-5.826 -6.182 0.360
-6.810 -7.315 0.509
-6.397 -7.300 0.908
-6.405 -7.304 0.903
-6.295 -6.787 0.496
-7.824 -8.032 0.211
-7.322 -8.007 0.685
-6.431 -7.165 0.732
-7.341 -8.008 0.668
-8.929 -9.006 0.077
-6.397 -7.300 0.908
-7.824 -8.032 0.211
-8.543 -9.409 0.870
-10.210 -11.352 1.145
-7.766 -8.245 0.483
-6.295 -6.787 0.496
-6.867 -7.523 0.660
-7.427 -8.012 0.586
-6.900 -7.522 0.626
-7.427 -8.012 0.586
-8.929 -9.006 0.077
-6.218 -6.808 0.594
-7.739 -8.264 0.528
-12.288 -9.459 -2.841
-6.443 -7.294 0.855
-6.443 -7.294 0.855
-7.864 -8.031 0.170
-6.478 -7.069 0.591
-6.478 -7.069 0.591
-6.478 -7.069 0.591
-6.478 -7.069 0.591
-6.478 -7.069 0.591
-6.478 -7.069 0.591
-6.478 -7.069 0.591
-6.478 -7.069 0.591
-6.523 -7.279 0.753
-6.523 -7.279 0.753
-6.523 -7.279 0.753
-6.554 -7.081 0.528
-6.526 -7.275 0.746
-6.587 -7.255 0.665
-6.554 -7.081 0.528
-6.526 -7.275 0.746
-6.527 -7.275 0.746