-7.062 -6.543 -0.519
-7.062 -6.543 -0.519
-6.881 -6.595 -0.284
-7.062 -6.543 -0.519
-7.062 -6.543 -0.519
-7.140 -6.547 -0.593
-7.140 -6.547 -0.593
-6.882 -6.595 -0.286
-7.140 -6.547 -0.593
-6.882 -6.595 -0.286
-7.140 -6.547 -0.593
-5.606 -5.156 -0.448
-7.140 -6.547 -0.593
-6.882 -6.595 -0.286
-6.981 -6.404 -0.576
-7.063 -6.542 -0.520
-7.140 -6.547 -0.593
-5.396 -4.974 -0.420
-7.140 -6.546 -0.593
-7.140 -6.546 -0.593
-7.063 -6.542 -0.520
-7.140 -6.546 -0.593
-6.882 -6.595 -0.286
-5.608 -5.155 -0.451
-7.140 -6.546 -0.593
-7.063 -6.542 -0.520
-5.396 -4.974 -0.420
-5.396 -4.974 -0.420
-7.140 -6.546 -0.593
-6.897 -6.394 -0.503
-6.882 -6.595 -0.286
-7.140 -6.547 -0.593
-5.582 -4.938 -0.642
-6.975 -6.591 -0.382
-8.087 -7.226 -0.858
-8.087 -7.226 -0.858
-8.087 -7.226 -0.858
-7.127 -6.550 -0.577
-7.392 -6.576 -0.816
-8.087 -7.226 -0.858
-6.972 -6.406 -0.566
-6.873 -6.600 -0.271
-6.873 -6.600 -0.271
-7.127 -6.550 -0.577
-7.989 -7.138 -0.848
-6.872 -6.601 -0.271
-6.872 -6.601 -0.271
-7.392 -6.576 -0.815
-7.127 -6.550 -0.576
-6.959 -6.598 -0.360
-8.086 -7.226 -0.857
-8.086 -7.226 -0.857
-6.959 -6.598 -0.360
-7.127 -6.550 -0.576
-8.086 -7.226 -0.857
-5.581 -4.938 -0.642
-7.127 -6.550 -0.576
-7.127 -6.550 -0.576
-7.127 -6.550 -0.576
-5.581 -4.938 -0.642
-6.872 -6.601 -0.271
-7.992 -7.134 -0.854
-7.088 -6.422 -0.666
-5.505 -5.095 -0.407
-8.085 -7.226 -0.857
-7.992 -7.134 -0.854
-7.391 -6.576 -0.815
-7.088 -6.422 -0.666
-6.958 -6.598 -0.360
-6.958 -6.598 -0.360
-7.391 -6.576 -0.815
-8.085 -7.226 -0.857
-6.958 -6.598 -0.360
-7.088 -6.422 -0.666
-6.872 -6.601 -0.270
-8.085 -7.226 -0.857
-8.160 -7.347 -0.811
-5.608 -5.155 -0.450
-7.126 -6.550 -0.576
-8.085 -7.226 -0.857
-7.292 -6.550 -0.741
-7.907 -7.126 -0.778
-5.651 -4.951 -0.699
-5.608 -5.155 -0.450
-7.126 -6.550 -0.575
-6.871 -6.601 -0.269
-8.085 -7.226 -0.857
-5.704 -5.154 -0.547
-7.391 -6.576 -0.815
-7.992 -7.134 -0.854
-6.893 -6.395 -0.497
-6.893 -6.395 -0.497
-5.505 -5.095 -0.407
-6.958 -6.598 -0.360
-7.126 -6.550 -0.575
-7.253 -6.602 -0.650
-7.126 -6.550 -0.576
-7.908 -7.126 -0.779
-5.581 -4.938 -0.641
-5.396 -4.975 -0.420
-5.396 -4.975 -0.420
-7.126 -6.550 -0.575
-8.085 -7.226 -0.857
-5.581 -4.938 -0.641
-5.581 -4.938 -0.641
-7.053 -6.546 -0.507
-7.992 -7.134 -0.854
-7.088 -6.422 -0.666
-6.972 -6.406 -0.566
-7.126 -6.550 -0.576
-7.253 -6.602 -0.650
-5.581 -4.938 -0.641
-7.992 -7.134 -0.854
-7.992 -7.134 -0.854
-6.872 -6.600 -0.270
-8.085 -7.226 -0.857
-5.704 -5.154 -0.547
-6.893 -6.395 -0.497
-5.581 -4.938 -0.641
-7.088 -6.422 -0.666
-7.126 -6.550 -0.576
-7.356 -6.575 -0.781
-5.505 -5.095 -0.407
-7.887 -6.904 -0.982
-8.085 -7.226 -0.857
-5.607 -5.155 -0.450
-5.581 -4.938 -0.641
-6.872 -6.601 -0.270
-5.505 -5.095 -0.407
-5.607 -5.155 -0.450
-5.607 -5.155 -0.450
-7.992 -7.134 -0.854
-8.160 -7.347 -0.811
-8.160 -7.347 -0.811
-5.704 -5.154 -0.547
-7.992 -7.134 -0.854
-7.253 -6.602 -0.650
-7.126 -6.550 -0.576
-5.581 -4.938 -0.641
-5.581 -4.938 -0.641
-7.992 -7.134 -0.854
-7.908 -7.126 -0.779
-5.608 -5.155 -0.450
-6.958 -6.598 -0.360
-5.505 -5.095 -0.407
-5.608 -5.155 -0.450
-5.173 -4.905 -0.267
-5.608 -5.155 -0.450
-7.887 -6.904 -0.982
-7.312 -6.586 -0.724
-6.893 -6.395 -0.497
-7.126 -6.550 -0.575
-7.253 -6.602 -0.650
-8.085 -7.226 -0.857
-6.970 -6.599 -0.370
-7.992 -7.134 -0.854
-7.992 -7.134 -0.854
-5.581 -4.938 -0.641
-7.054 -6.545 -0.507
-8.085 -7.226 -0.857
-7.992 -7.134 -0.854
-8.085 -7.226 -0.857
-6.871 -6.601 -0.270
-7.907 -7.126 -0.777
-5.396 -4.975 -0.419
-6.871 -6.601 -0.270
-8.143 -7.348 -0.793
-8.085 -7.226 -0.857
-7.989 -7.138 -0.848
-7.253 -6.602 -0.650
-7.297 -7.055 -0.239
-5.581 -4.938 -0.641
-5.608 -5.155 -0.450
-5.608 -5.155 -0.450
-6.972 -6.597 -0.374
-6.972 -6.597 -0.374
-6.872 -6.600 -0.270
-6.958 -6.598 -0.360
-7.088 -6.422 -0.666
-5.608 -5.155 -0.450
-5.581 -4.938 -0.641
-5.505 -5.095 -0.407
-5.608 -5.155 -0.450
-8.085 -7.226 -0.857
-6.972 -6.406 -0.566
-6.971 -6.598 -0.372
-7.356 -6.575 -0.781
-6.958 -6.598 -0.359
-8.085 -7.226 -0.857
-6.871 -6.601 -0.270
-5.271 -4.976 -0.294
-7.952 -7.221 -0.729
-5.173 -4.905 -0.267
-7.253 -6.602 -0.650
-7.253 -6.602 -0.650
-5.581 -4.938 -0.641
-7.907 -7.126 -0.777
-8.174 -7.348 -0.824
-5.607 -5.155 -0.450
-7.311 -6.586 -0.724
-5.271 -4.976 -0.294
-7.292 -6.550 -0.741
-5.704 -5.154 -0.547
-8.160 -7.347 -0.811
-6.959 -6.598 -0.360
-7.890 -7.322 -0.567
-6.959 -6.598 -0.360
-5.704 -5.154 -0.547
-7.253 -6.602 -0.650
-5.396 -4.975 -0.420
-5.581 -4.938 -0.641
-7.992 -7.134 -0.854
-5.704 -5.154 -0.547
-6.892 -6.395 -0.497
-6.872 -6.600 -0.270
-7.989 -7.138 -0.848
-7.952 -7.220 -0.730
-7.992 -7.134 -0.854
-6.872 -6.600 -0.270
-7.253 -6.602 -0.650
-7.356 -6.575 -0.781
-5.607 -5.155 -0.450
-7.908 -7.126 -0.779
-6.813 -6.603 -0.209
-5.173 -4.905 -0.267
-7.887 -6.904 -0.982
-8.160 -7.347 -0.811
-6.958 -6.598 -0.360
-8.085 -7.226 -0.857
-6.871 -6.601 -0.270
-8.085 -7.226 -0.857
-5.505 -5.095 -0.407
-5.011 -4.947 -0.061
-7.126 -6.550 -0.575
-7.992 -7.134 -0.854
-5.929 -5.870 -0.056
-7.253 -6.602 -0.650
-5.011 -4.947 -0.061
-8.085 -7.226 -0.857
-5.581 -4.938 -0.641
-5.607 -5.155 -0.450
-6.975 -6.592 -0.382
-8.078 -7.229 -0.846
-5.269 -4.976 -0.292
-5.929 -5.871 -0.055
-5.605 -5.156 -0.447
-5.605 -5.156 -0.447
-8.144 -7.348 -0.793
-8.144 -7.348 -0.793
-8.174 -7.348 -0.824
-7.357 -6.575 -0.782
-8.086 -7.226 -0.857
-7.992 -7.134 -0.854
-7.215 -6.554 -0.659
-5.269 -4.976 -0.292
-7.354 -7.037 -0.318
-5.171 -4.905 -0.265
-5.171 -4.905 -0.265
-6.873 -6.600 -0.271
-8.022 -7.139 -0.880
-5.605 -5.156 -0.447
-5.171 -4.905 -0.265
-5.605 -5.156 -0.447
-5.580 -4.938 -0.640
-8.175 -7.348 -0.824
-8.078 -7.229 -0.846
-8.078 -7.229 -0.846
-7.992 -7.134 -0.855
-5.620 -5.093 -0.523
-7.127 -6.550 -0.576
-8.078 -7.229 -0.846
-7.254 -6.602 -0.651
-7.126 -6.550 -0.576
-7.890 -7.322 -0.567
-8.144 -7.348 -0.793
-6.960 -6.598 -0.361
-6.873 -6.600 -0.271
-6.893 -6.395 -0.498
-6.500 -6.217 -0.280
-5.581 -4.938 -0.642
-5.396 -4.975 -0.420
-7.357 -6.575 -0.782
-7.992 -7.134 -0.855
-7.992 -7.134 -0.855
-7.055 -6.545 -0.508
-7.410 -7.038 -0.370
-7.017 -6.579 -0.438
-7.909 -7.125 -0.780
-5.011 -4.947 -0.061
-8.144 -7.348 -0.793
-8.144 -7.348 -0.793
-7.357 -6.575 -0.782
-5.396 -4.975 -0.420
-5.581 -4.938 -0.642
-6.563 -6.350 -0.209
-6.959 -6.598 -0.361
-7.127 -6.550 -0.577
-8.175 -7.348 -0.824
-7.992 -7.134 -0.855
-8.110 -7.232 -0.875
-5.620 -5.093 -0.523
-8.078 -7.229 -0.846
-6.500 -6.217 -0.279
-7.126 -6.550 -0.576
-7.605 -6.499 -1.104
-5.475 -4.848 -0.625
-7.226 -6.539 -0.684
-5.536 -5.089 -0.445
-5.536 -5.089 -0.445
-6.679 -6.347 -0.329
-6.038 -6.057 0.023
-8.321 -7.353 -0.966
-8.321 -7.353 -0.966
-5.865 -5.865 0.004
-5.403 -5.034 -0.366
-7.878 -7.317 -0.559
-7.417 -6.477 -0.938
-5.475 -4.848 -0.625
-7.226 -6.539 -0.684
-8.308 -7.352 -0.953
-8.143 -7.232 -0.908
-7.182 -6.470 -0.710
-5.475 -4.848 -0.625
-5.511 -5.028 -0.479
-8.291 -7.354 -0.935
-7.174 -6.538 -0.634
-8.291 -7.354 -0.935
-7.373 -6.531 -0.841
-5.439 -4.924 -0.513
-8.321 -7.353 -0.966
-8.308 -7.352 -0.953
-8.291 -7.354 -0.935
-7.363 -6.472 -0.889
-8.321 -7.353 -0.966
-8.321 -7.353 -0.966
-7.685 -7.117 -0.568
-5.403 -5.034 -0.366
-6.933 -6.552 -0.380
-4.888 -4.938 0.053
-5.628 -5.564 -0.062
-8.321 -7.353 -0.966
-5.026 -5.017 -0.006
-5.175 -5.067 -0.107
-7.226 -6.539 -0.684
-5.475 -4.848 -0.625
-8.112 -7.230 -0.880
-8.291 -7.354 -0.935
-8.321 -7.353 -0.966
-8.321 -7.353 -0.966
-8.321 -7.353 -0.966
-8.321 -7.353 -0.966
-8.121 -7.226 -0.892
-5.026 -5.017 -0.006
-8.143 -7.232 -0.908
-4.893 -4.922 0.032
-8.321 -7.353 -0.966
-5.113 -4.965 -0.149
-7.226 -6.540 -0.684
-5.475 -4.848 -0.625
-8.112 -7.230 -0.880
-6.467 -5.859 -0.605
-5.026 -5.017 -0.006
-7.636 -7.231 -0.403
-4.888 -4.938 0.053
-4.888 -4.938 0.053
-7.225 -6.539 -0.684
-5.475 -4.848 -0.625
-7.225 -6.539 -0.684
-4.874 -4.938 0.068
-5.475 -4.848 -0.625
-8.143 -7.232 -0.908
-6.954 -7.264 0.311
-8.291 -7.354 -0.935
-7.417 -6.477 -0.938
-7.216 -6.562 -0.652
-7.226 -6.541 -0.683
-5.100 -4.874 -0.226
-7.688 -7.211 -0.474
-7.854 -7.343 -0.509
-7.688 -7.211 -0.474
-7.605 -6.499 -1.104
-7.854 -7.343 -0.509
-7.605 -6.499 -1.105
-5.408 -4.849 -0.558
-7.277 -7.197 -0.079
-6.038 -6.057 0.023
-7.605 -6.499 -1.105
-7.035 -7.084 0.051
-8.291 -7.354 -0.935
-7.272 -6.544 -0.726
-7.226 -6.539 -0.684
-7.272 -6.544 -0.726
-7.373 -6.531 -0.841
-5.536 -5.089 -0.445
-8.321 -7.353 -0.966
-8.321 -7.353 -0.966
-7.677 -7.203 -0.473
-7.636 -7.231 -0.403
-6.422 -6.393 -0.026
-7.363 -6.472 -0.889
-7.373 -6.531 -0.841
-5.865 -5.865 0.004
-5.628 -5.564 -0.062
-6.467 -5.859 -0.606
-7.226 -6.539 -0.684
-5.865 -5.865 0.004
-7.226 -6.539 -0.684
-6.544 -6.555 0.012
-6.544 -6.555 0.012
-7.417 -6.477 -0.938
-7.417 -6.477 -0.938
-5.536 -5.089 -0.445
-5.865 -5.865 0.004
-7.605 -6.499 -1.104
-5.115 -4.965 -0.150
-7.605 -6.499 -1.104
-6.264 -6.503 0.242
-7.226 -6.539 -0.684
-7.363 -6.472 -0.889
-5.408 -4.849 -0.558
-7.417 -6.477 -0.938
-8.112 -7.230 -0.880
-5.100 -4.873 -0.226
-7.413 -6.489 -0.921
-7.271 -6.544 -0.724
-6.111 -6.271 0.163
-6.965 -7.244 0.277
-8.291 -7.354 -0.935
-8.291 -7.354 -0.935
-7.416 -6.477 -0.937
-6.109 -6.273 0.167
-8.112 -7.230 -0.879
-7.636 -7.232 -0.403
-7.490 -6.565 -0.924
-7.372 -6.531 -0.839
-8.142 -7.232 -0.907
-7.876 -7.319 -0.556
-7.876 -7.319 -0.555
-4.888 -4.938 0.053
-8.321 -7.353 -0.965
-4.888 -4.938 0.053
-7.604 -6.499 -1.103
-7.416 -6.477 -0.937
-8.321 -7.353 -0.965
-5.466 -5.089 -0.375
-5.099 -4.873 -0.225
-5.475 -4.848 -0.625
-8.070 -7.146 -0.920
-6.988 -7.155 0.167
-7.271 -6.544 -0.724
-7.768 -7.093 -0.672
-5.475 -4.848 -0.625
-6.466 -5.859 -0.605
-7.277 -7.197 -0.079
-5.114 -4.965 -0.149
-5.026 -5.017 -0.006
-4.888 -4.938 0.053
-5.026 -5.017 -0.006
-7.483 -7.102 -0.379
-7.225 -6.539 -0.683
-8.112 -7.230 -0.879
-6.470 -6.115 -0.351
-5.026 -5.017 -0.006
-7.711 -7.092 -0.616
-7.224 -6.540 -0.682
-5.026 -5.017 -0.006
-5.113 -4.965 -0.148
-6.351 -6.199 -0.148
-5.113 -4.965 -0.148
-6.543 -6.555 0.013
-7.416 -6.477 -0.936
-7.225 -6.539 -0.683
-7.362 -6.472 -0.887
-5.115 -4.965 -0.150
-7.225 -6.539 -0.683
-7.604 -6.499 -1.103
-5.100 -4.874 -0.226
-5.100 -4.874 -0.226
-8.038 -7.145 -0.890
-7.283 -6.546 -0.735
-5.475 -4.848 -0.625
-8.073 -7.143 -0.927
-7.062 -6.543 -0.519
-7.567 -7.222 -0.344
-5.270 -4.976 -0.292
-5.928 -5.871 -0.054
-6.970 -7.241 0.269
-6.897 -6.394 -0.504
-7.366 -6.573 -0.793
-7.059 -6.544 -0.514
-8.144 -7.348 -0.793
-7.989 -7.138 -0.848
-5.535 -5.155 -0.378
-7.989 -7.138 -0.848
-5.000 -4.930 -0.066
-5.000 -4.930 -0.066
-7.127 -6.550 -0.576
-5.605 -5.156 -0.447
-8.022 -7.139 -0.879
-5.620 -5.093 -0.523
-5.692 -5.564 -0.127
-4.996 -4.947 -0.046
-6.873 -6.600 -0.271
-7.989 -7.138 -0.848
-7.323 -7.227 -0.094
-5.505 -5.095 -0.407
-6.997 -7.148 0.151
-6.985 -7.142 0.158
-7.127 -6.550 -0.576
-6.872 -6.601 -0.271
-5.608 -5.155 -0.450
-7.641 -7.229 -0.411
-8.144 -7.348 -0.793
-7.055 -6.545 -0.508
-5.581 -4.938 -0.642
-7.127 -6.550 -0.577
-6.420 -6.396 -0.021
-7.684 -7.117 -0.567
-7.989 -7.138 -0.848
-8.078 -7.229 -0.846
-6.872 -6.601 -0.271
-6.872 -6.601 -0.271
-6.893 -6.395 -0.497
-5.608 -5.155 -0.450
-5.505 -5.095 -0.407
-8.174 -7.348 -0.824
-6.893 -6.395 -0.498
-7.410 -7.034 -0.374
-7.677 -7.370 -0.305
-5.581 -4.938 -0.642
-5.505 -5.095 -0.407
-8.174 -7.348 -0.824
-6.973 -6.406 -0.567
-6.720 -7.150 0.431
-6.115 -6.062 -0.049
-4.986 -4.930 -0.053
-7.989 -7.138 -0.848
-8.078 -7.229 -0.846
-8.174 -7.348 -0.824
-6.165 -6.211 0.050
-7.054 -6.545 -0.508
-6.873 -6.600 -0.271
-6.873 -6.600 -0.271
-7.054 -6.546 -0.508
-5.581 -4.938 -0.641
-6.115 -6.062 -0.049
-7.357 -6.575 -0.782
-7.357 -6.575 -0.782
-6.919 -7.094 0.175
-6.994 -7.150 0.156
-6.997 -7.154 0.157
-6.872 -6.600 -0.271
-5.581 -4.938 -0.642
-7.127 -6.550 -0.576
-6.872 -6.600 -0.271
-8.144 -7.348 -0.793
-7.619 -7.236 -0.380
-5.581 -4.938 -0.641
-5.581 -4.938 -0.641
-7.907 -7.126 -0.778
-7.617 -7.237 -0.377
-4.986 -4.930 -0.053
-5.581 -4.938 -0.641
-6.872 -6.601 -0.270
-8.086 -7.350 -0.734
-7.416 -7.047 -0.366
-5.620 -5.093 -0.523
-6.893 -6.395 -0.498
-7.357 -6.575 -0.782
-7.699 -7.205 -0.492
-6.873 -6.600 -0.271
-5.011 -4.947 -0.061
-8.144 -7.348 -0.793
-6.873 -6.600 -0.271
-5.929 -5.870 -0.056
-6.873 -6.600 -0.271
-5.815 -5.806 -0.005
-6.893 -6.395 -0.498
-5.581 -4.938 -0.641
-7.054 -6.546 -0.508
-5.505 -5.095 -0.407
-5.173 -4.905 -0.267
-5.929 -5.870 -0.056
-7.923 -7.130 -0.789
-8.078 -7.229 -0.846
-7.254 -6.602 -0.650
-6.872 -6.601 -0.271
-5.608 -5.155 -0.450
-7.126 -6.550 -0.576
-7.619 -7.236 -0.379
-7.619 -7.236 -0.379
-6.872 -6.601 -0.271
-7.054 -6.546 -0.508
-7.282 -7.197 -0.084
-6.997 -7.154 0.157
-7.357 -6.575 -0.782
-6.972 -6.406 -0.567
-8.086 -7.350 -0.734
-5.505 -5.095 -0.407
-5.929 -5.870 -0.056
-7.054 -6.546 -0.508
-5.929 -5.870 -0.056
-4.986 -4.930 -0.053
-6.628 -6.912 0.287
-6.997 -7.154 0.157
-8.021 -7.139 -0.879
-7.054 -6.545 -0.508
-5.608 -5.155 -0.450
-4.986 -4.930 -0.053
-6.247 -6.409 0.165
-6.893 -6.395 -0.498
-7.357 -6.575 -0.782
-7.054 -6.546 -0.508
-7.357 -6.575 -0.782
-8.144 -7.348 -0.793
-7.127 -6.550 -0.577
-7.696 -7.208 -0.487
-7.842 -7.324 -0.516
-5.538 -5.154 -0.381
-7.229 -7.081 -0.146
-6.872 -6.600 -0.271
-5.815 -5.806 -0.005
-6.165 -6.211 0.050
-7.054 -6.546 -0.508
-7.552 -7.377 -0.173
-6.872 -6.600 -0.271
-7.054 -6.546 -0.508
-6.872 -6.600 -0.271
-7.981 -7.226 -0.752
-6.872 -6.601 -0.271
-5.180 -4.905 -0.274
-6.872 -6.600 -0.271
-8.174 -7.348 -0.824
-6.997 -7.154 0.157
-8.110 -7.232 -0.875
-6.872 -6.601 -0.271
-7.356 -6.575 -0.781
-6.836 -6.603 -0.232
-7.054 -6.546 -0.508
-7.550 -7.378 -0.171
-7.054 -6.546 -0.508
-6.872 -6.601 -0.271
-6.872 -6.601 -0.271
-6.872 -6.600 -0.271
-6.872 -6.601 -0.271
-8.174 -7.348 -0.824
-6.893 -6.395 -0.498
-5.538 -5.154 -0.381
-7.054 -6.545 -0.508
-6.873 -6.600 -0.271
-8.174 -7.348 -0.824
-7.134 -7.212 0.071
-7.716 -7.096 -0.617
-7.842 -7.324 -0.516
-5.272 -4.976 -0.294
-6.873 -6.600 -0.271
-8.174 -7.348 -0.824
-8.110 -7.232 -0.875
-5.272 -4.976 -0.294
-7.054 -6.546 -0.508
-7.054 -6.546 -0.508
-8.174 -7.348 -0.824
-5.272 -4.976 -0.294
-6.873 -6.600 -0.271
-7.674 -7.370 -0.302
-8.144 -7.348 -0.793
-5.608 -5.155 -0.450
-8.110 -7.232 -0.875
-8.110 -7.232 -0.875
-5.438 -5.094 -0.341
-5.921 -5.869 -0.048
-8.078 -7.229 -0.846
-7.684 -7.117 -0.567
-6.893 -6.395 -0.497
-6.966 -7.263 0.298
-6.921 -6.599 -0.321
-6.893 -6.395 -0.497
-5.538 -5.154 -0.381
-6.893 -6.395 -0.497
-6.814 -6.603 -0.210
-6.893 -6.395 -0.497
-5.608 -5.155 -0.450
-7.461 -7.230 -0.228
-6.813 -6.603 -0.210
-6.986 -7.155 0.169
-7.550 -7.378 -0.171
-8.021 -7.139 -0.879
-8.021 -7.139 -0.879
-7.981 -7.225 -0.753
-8.021 -7.139 -0.879
-6.893 -6.395 -0.498
-4.987 -4.930 -0.054
-7.054 -6.545 -0.508
-5.272 -4.976 -0.294
-6.872 -6.600 -0.271
-7.459 -7.231 -0.226
-7.550 -7.378 -0.170
-7.126 -6.550 -0.576
-7.126 -6.550 -0.576
-7.617 -7.237 -0.377
-6.872 -6.601 -0.270
-6.267 -6.538 0.272
-6.987 -6.408 -0.579
-7.142 -6.551 -0.591
-6.872 -6.601 -0.270
-5.272 -4.976 -0.294
-7.562 -7.377 -0.183
-6.893 -6.395 -0.497
-6.465 -6.945 0.479
-7.054 -6.546 -0.508
-7.581 -7.377 -0.202
-7.980 -7.226 -0.752
-7.054 -6.546 -0.508
-4.987 -4.930 -0.054
-8.174 -7.348 -0.824
-6.873 -6.600 -0.271
-7.923 -7.130 -0.789
-7.459 -7.231 -0.226
-6.893 -6.396 -0.497
-7.054 -6.546 -0.507
-6.997 -7.155 0.158
-6.872 -6.601 -0.270
-6.872 -6.601 -0.270
-6.881 -6.595 -0.285
-5.929 -5.871 -0.054
-6.817 -6.594 -0.222
-7.062 -6.543 -0.519
-5.504 -5.095 -0.406
-7.062 -6.543 -0.519
-7.641 -7.358 -0.282
-7.138 -6.547 -0.590
-6.926 -6.501 -0.421
-8.078 -7.229 -0.846
-7.054 -6.546 -0.508
-8.110 -7.232 -0.875
-7.228 -7.081 -0.145
-6.836 -6.603 -0.232
-6.892 -6.396 -0.496
-7.054 -6.546 -0.507
-8.084 -7.353 -0.729
-5.606 -5.156 -0.448
-6.979 -6.598 -0.380
-7.416 -6.477 -0.936
-7.348 -7.080 -0.266
-7.290 -7.198 -0.092
-6.550 -6.554 0.005
-6.550 -6.554 0.005
-8.112 -7.230 -0.880
-5.534 -5.090 -0.442
-4.891 -4.923 0.035
-7.187 -6.541 -0.643
-7.979 -7.137 -0.838
-7.226 -6.540 -0.684
-6.961 -7.264 0.304
-7.377 -6.476 -0.899
-4.892 -4.923 0.034
-6.525 -6.558 0.034
-7.863 -7.323 -0.538
-7.863 -7.323 -0.538
-8.234 -7.360 -0.872
-7.226 -6.540 -0.684
-6.961 -7.264 0.304
-6.961 -7.264 0.304
-8.017 -7.227 -0.788
-5.861 -5.865 0.008
-7.416 -6.477 -0.936
-7.733 -7.352 -0.379
-7.053 -6.516 -0.535
-8.234 -7.360 -0.872
-8.234 -7.360 -0.872
-7.979 -7.137 -0.838
-5.861 -5.865 0.008
-7.226 -6.540 -0.684
-7.271 -6.545 -0.724
-6.677 -6.548 -0.128
-6.290 -5.916 -0.370
-5.861 -5.865 0.008
-4.872 -4.939 0.070
-7.277 -7.197 -0.079
-7.224 -6.552 -0.669
-7.226 -6.540 -0.684
-6.416 -5.876 -0.538
-7.712 -7.092 -0.617
-5.534 -5.090 -0.442
-5.474 -4.848 -0.624
-4.583 -4.502 -0.077
-7.361 -6.472 -0.887
-5.173 -5.067 -0.104
-5.173 -5.067 -0.104
-7.863 -7.323 -0.538
-8.234 -7.360 -0.873
-7.303 -7.194 -0.108
-6.290 -5.916 -0.371
-7.765 -7.093 -0.668
-7.284 -6.547 -0.735
-7.225 -6.540 -0.683
-7.361 -6.472 -0.887
-7.187 -6.541 -0.643
-5.861 -5.865 0.008
-6.544 -6.555 0.013
-7.863 -7.321 -0.540
-7.303 -7.194 -0.108
-5.861 -5.865 0.008
-5.474 -4.848 -0.624
-5.474 -4.848 -0.624
-6.961 -7.264 0.303
-7.226 -6.540 -0.684
-4.907 -4.923 0.019
-6.510 -6.047 -0.460
-6.466 -5.859 -0.605
-6.512 -5.872 -0.638
-7.361 -6.472 -0.887
-6.404 -5.869 -0.533
-7.173 -6.538 -0.633
-7.284 -6.547 -0.735
-7.187 -6.541 -0.643
-7.220 -6.537 -0.680
-7.696 -6.883 -0.811
-6.381 -6.118 -0.259
-6.961 -7.264 0.304
-7.289 -7.232 -0.055
-7.863 -7.322 -0.538
-5.407 -4.849 -0.557
-5.401 -5.035 -0.363
-6.961 -7.264 0.303
-5.742 -5.801 0.062
-7.676 -7.207 -0.468
-7.234 -6.544 -0.687
-7.128 -7.212 0.077
-7.863 -7.321 -0.540
-7.187 -6.541 -0.643
-7.226 -6.540 -0.684
-6.990 -7.150 0.159
-7.187 -6.541 -0.643
-5.112 -4.965 -0.147
-7.416 -6.477 -0.936
-7.174 -6.538 -0.633
-4.907 -4.923 0.019
-7.854 -7.343 -0.509
-7.416 -6.477 -0.937
-7.362 -6.472 -0.887
-5.474 -4.848 -0.624
-5.474 -4.848 -0.624
-7.174 -6.538 -0.633
-4.886 -4.939 0.056
-6.417 -5.876 -0.538
-5.112 -4.965 -0.147
-7.733 -7.094 -0.637
-7.710 -7.210 -0.499
-7.734 -7.352 -0.380
-5.474 -4.848 -0.624
-6.961 -7.264 0.303
-7.854 -7.343 -0.509
-6.467 -5.859 -0.605
-7.427 -6.479 -0.946
-7.851 -7.343 -0.506
-8.235 -7.360 -0.873
-8.235 -7.360 -0.873
-4.477 -4.769 0.295
-6.638 -6.283 -0.352
-7.641 -7.380 -0.259
-5.474 -4.848 -0.624
-7.174 -6.538 -0.633
-6.798 -6.944 0.136
-7.226 -6.539 -0.684
-7.378 -7.080 -0.295
-6.417 -5.876 -0.538
-6.988 -7.155 0.167
-8.017 -7.226 -0.789
-5.797 -6.048 0.254
-6.987 -7.155 0.169
-7.234 -6.549 -0.683
-6.544 -6.561 0.018
-7.532 -7.207 -0.323
-7.409 -7.219 -0.187
-6.404 -5.869 -0.533
-5.407 -4.849 -0.557
-7.186 -6.541 -0.643
-7.186 -6.541 -0.643
-7.171 -6.539 -0.630
-7.980 -7.137 -0.840
-6.417 -5.876 -0.538
-7.187 -6.541 -0.644
-6.290 -5.915 -0.371
-7.052 -7.088 0.038
-7.646 -7.381 -0.264
-5.024 -5.017 -0.003
-6.417 -5.876 -0.538
-8.696 -8.063 -0.632
-8.400 -8.075 -0.321
-8.697 -8.062 -0.633
-8.736 -8.079 -0.655
-8.400 -8.075 -0.321
-8.738 -8.058 -0.679
-8.400 -8.075 -0.321
-8.225 -7.776 -0.446
-9.104 -8.186 -0.915
-9.104 -8.186 -0.915
-8.697 -8.062 -0.633
-9.104 -8.186 -0.915
-8.697 -8.062 -0.633
-8.283 -7.786 -0.495
-8.281 -7.659 -0.619
-8.697 -8.062 -0.633
-8.907 -8.174 -0.729
-8.400 -8.075 -0.321
-8.400 -8.075 -0.321
-8.551 -8.157 -0.390
-8.631 -8.078 -0.551
-8.738 -8.058 -0.679
-8.697 -8.062 -0.633
-9.425 -8.561 -0.860
-8.241 -7.659 -0.580
-9.437 -8.550 -0.883
-8.697 -8.062 -0.633
-8.551 -8.157 -0.390
-8.281 -7.659 -0.619
-9.104 -8.186 -0.915
-8.283 -7.786 -0.495
-8.444 -8.145 -0.295
-8.242 -7.659 -0.580
-8.400 -8.075 -0.321
-8.242 -7.659 -0.580
-9.127 -8.181 -0.942
-8.400 -8.075 -0.321
-8.400 -8.075 -0.321
-8.281 -7.659 -0.618
-8.778 -8.380 -0.396
-8.281 -7.659 -0.619
-9.127 -8.181 -0.942
-8.281 -7.659 -0.618
-8.241 -7.659 -0.580
-8.216 -7.662 -0.551
-9.425 -8.561 -0.860
-8.539 -8.403 -0.134
-8.471 -8.574 0.104
-8.520 -8.117 -0.400
-9.104 -8.186 -0.915
-8.401 -8.075 -0.322
-8.519 -8.117 -0.399
-8.217 -7.662 -0.552
-8.534 -8.157 -0.374
-8.284 -7.786 -0.496
-8.445 -8.145 -0.296
-8.445 -8.145 -0.296
-8.739 -8.058 -0.680
-8.445 -8.145 -0.296
-8.534 -8.157 -0.374
-8.401 -8.075 -0.322
-9.104 -8.186 -0.915
-8.982 -8.181 -0.797
-8.284 -7.786 -0.496
-8.401 -8.075 -0.322
-9.127 -8.181 -0.943
-8.302 -8.072 -0.226
-8.739 -8.058 -0.680
-8.284 -7.786 -0.496
-8.423 -8.146 -0.274
-9.425 -8.561 -0.861
-8.697 -8.062 -0.634
-9.437 -8.550 -0.884
-8.226 -7.775 -0.447
-9.297 -8.555 -0.739
-8.450 -8.143 -0.303
-8.233 -7.949 -0.281
-8.242 -7.659 -0.580
-9.127 -8.181 -0.942
-8.476 -8.115 -0.357
-8.519 -8.117 -0.399
-8.423 -8.146 -0.273
-9.409 -8.561 -0.844
-9.127 -8.181 -0.943
-8.739 -8.058 -0.680
-8.401 -8.075 -0.322
-8.384 -8.075 -0.305
-8.226 -7.775 -0.447
-8.534 -8.157 -0.374
-8.477 -8.115 -0.359
-8.384 -8.075 -0.305
-9.104 -8.186 -0.915
-9.104 -8.186 -0.915
-8.513 -8.114 -0.396
-8.477 -8.115 -0.359
-8.739 -8.058 -0.680
-8.942 -8.166 -0.772
-8.464 -8.150 -0.311
-8.739 -8.058 -0.680
-8.401 -8.075 -0.322
-8.303 -7.708 -0.593
-8.442 -8.582 0.142
-9.127 -8.181 -0.943
-8.739 -8.058 -0.680
-8.557 -8.390 -0.166
-8.739 -8.058 -0.680
-7.971 -7.552 -0.417
-8.477 -8.115 -0.359
-8.327 -7.820 -0.504
-8.284 -7.786 -0.496
-8.284 -7.786 -0.496
-8.471 -8.574 0.103
-8.471 -8.574 0.103
-8.217 -7.662 -0.552
-8.445 -8.145 -0.296
-8.284 -7.786 -0.496
-8.284 -7.786 -0.496
-9.127 -8.181 -0.943
-8.303 -7.707 -0.593
-8.739 -8.058 -0.680
-8.234 -7.949 -0.282
-9.409 -8.561 -0.844
-9.409 -8.561 -0.844
-9.085 -8.185 -0.897
-8.226 -7.775 -0.447
-9.425 -8.561 -0.861
-9.104 -8.186 -0.915
-8.303 -7.708 -0.593
-8.557 -8.390 -0.166
-8.284 -7.786 -0.496
-8.557 -8.390 -0.166
-8.739 -8.058 -0.680
-9.409 -8.561 -0.844
-8.513 -8.114 -0.396
-8.477 -8.115 -0.359
-9.104 -8.186 -0.915
-8.557 -8.390 -0.166
-9.127 -8.181 -0.943
-9.127 -8.181 -0.943
-8.662 -8.692 0.029
-8.081 -7.599 -0.479
-8.234 -7.949 -0.282
-9.127 -8.181 -0.943
-9.409 -8.561 -0.844
-9.409 -8.561 -0.844
-9.437 -8.551 -0.884
-8.423 -8.146 -0.273
-8.445 -8.145 -0.296
-9.409 -8.561 -0.844
-8.423 -8.146 -0.273
-8.519 -8.117 -0.399
-9.104 -8.186 -0.915
-9.104 -8.186 -0.915
-9.104 -8.186 -0.915
-9.127 -8.181 -0.943
-9.437 -8.550 -0.884
-9.409 -8.561 -0.844
-8.616 -8.207 -0.406
-8.697 -8.062 -0.634
-8.739 -8.058 -0.680
-8.739 -8.058 -0.680
-9.104 -8.186 -0.915
-8.335 -8.138 -0.193
-8.540 -8.403 -0.135
-8.335 -7.822 -0.510
-8.668 -8.060 -0.607
-9.409 -8.561 -0.844
-8.316 -7.821 -0.493
-9.409 -8.561 -0.844
-8.778 -8.380 -0.396
-8.616 -8.207 -0.406
-8.457 -8.114 -0.339
-8.190 -7.881 -0.306
-9.409 -8.561 -0.844
-9.409 -8.561 -0.844
-9.104 -8.186 -0.915
-8.303 -7.708 -0.593
-9.085 -8.185 -0.897
-8.471 -8.574 0.103
-9.127 -8.181 -0.943
-9.085 -8.185 -0.897
-8.284 -7.786 -0.496
-8.715 -8.260 -0.451
-9.409 -8.561 -0.844
-9.409 -8.561 -0.844
-8.228 -7.721 -0.504
-9.104 -8.186 -0.915
-8.557 -8.390 -0.166
-8.739 -8.058 -0.680
-8.477 -8.115 -0.359
-9.104 -8.186 -0.915
-8.335 -8.138 -0.193
-8.616 -8.207 -0.406
-8.284 -7.786 -0.496
-8.284 -7.786 -0.496
-8.284 -7.786 -0.496
-9.297 -8.555 -0.739
-8.557 -8.390 -0.166
-8.907 -8.174 -0.729
-9.409 -8.561 -0.844
-9.104 -8.186 -0.915
-8.377 -8.584 0.209
-9.409 -8.561 -0.844
-9.085 -8.185 -0.897
-8.557 -8.390 -0.166
-8.234 -7.949 -0.282
-8.739 -8.058 -0.680
-8.228 -7.721 -0.504
-8.189 -7.881 -0.305
-8.335 -8.138 -0.193
-8.316 -7.821 -0.492
-8.284 -7.786 -0.496
-8.457 -8.114 -0.339
-8.324 -7.830 -0.491
-9.409 -8.561 -0.844
-8.616 -8.207 -0.406
-9.409 -8.561 -0.844
-9.409 -8.561 -0.844
-9.409 -8.561 -0.844
-8.513 -8.379 -0.133
-8.234 -7.949 -0.282
-9.409 -8.561 -0.844
-8.365 -7.822 -0.539
-8.296 -7.832 -0.461
-8.477 -8.115 -0.359
-8.316 -7.821 -0.493
-8.477 -8.115 -0.359
-8.324 -7.830 -0.491
-8.189 -7.881 -0.306
-9.085 -8.185 -0.897
-8.778 -8.380 -0.396
-8.284 -7.786 -0.496
-9.437 -8.550 -0.884
-8.778 -8.380 -0.396
-9.127 -8.181 -0.943
-8.226 -7.775 -0.447
-9.409 -8.561 -0.844
-9.409 -8.561 -0.844
-8.284 -7.786 -0.496
-8.513 -8.379 -0.133
-9.085 -8.185 -0.897
-8.423 -8.146 -0.273
-8.616 -8.207 -0.406
-8.739 -8.058 -0.680
-8.423 -8.146 -0.273
-8.938 -8.185 -0.749
-9.085 -8.185 -0.897
-9.409 -8.561 -0.844
-9.085 -8.185 -0.897
-9.409 -8.561 -0.844
-9.409 -8.561 -0.844
-8.226 -7.775 -0.447
-8.778 -8.380 -0.396
-8.542 -8.379 -0.162
-8.401 -8.075 -0.322
-8.393 -8.315 -0.074
-9.409 -8.561 -0.844
-9.085 -8.185 -0.897
-8.778 -8.380 -0.396
-8.365 -7.822 -0.539
-9.409 -8.561 -0.844
-8.306 -8.332 0.029
-9.127 -8.181 -0.943
-8.356 -7.783 -0.571
-8.504 -8.115 -0.385
-8.226 -7.775 -0.447
-8.616 -8.207 -0.406
-9.085 -8.185 -0.897
-9.409 -8.561 -0.844
-8.423 -8.146 -0.273
-9.085 -8.185 -0.897
-8.557 -8.390 -0.166
-8.477 -8.115 -0.359
-9.085 -8.185 -0.897
-8.668 -8.060 -0.607
-8.504 -8.115 -0.385
-8.557 -8.390 -0.166
-8.471 -8.574 0.103
-9.409 -8.561 -0.844
-8.436 -8.114 -0.319
-9.409 -8.561 -0.844
-9.104 -8.186 -0.915
-8.668 -8.060 -0.607
-8.296 -7.832 -0.461
-9.085 -8.185 -0.897
-9.085 -8.185 -0.897
-9.409 -8.561 -0.844
-8.504 -8.115 -0.385
-9.409 -8.561 -0.844
-8.234 -7.949 -0.282
-8.616 -8.207 -0.406
-8.668 -8.060 -0.607
-9.085 -8.185 -0.897
-8.513 -8.379 -0.133
-8.662 -8.692 0.029
-8.316 -7.821 -0.493
-9.409 -8.561 -0.844
-9.085 -8.185 -0.897
-9.085 -8.185 -0.897
-8.778 -8.379 -0.396
-8.208 -7.882 -0.323
-8.306 -8.332 0.029
-9.034 -8.180 -0.851
-8.778 -8.380 -0.396
-9.409 -8.561 -0.844
-9.085 -8.185 -0.897
-8.189 -7.881 -0.306
-8.226 -7.775 -0.447
-8.406 -8.146 -0.256
-8.737 -8.728 -0.009
-9.085 -8.185 -0.897
-8.513 -8.379 -0.133
-8.303 -7.708 -0.593
-8.668 -8.060 -0.607
-8.668 -8.060 -0.607
-8.737 -8.058 -0.678
-8.615 -8.207 -0.405
-9.408 -8.561 -0.843
-9.085 -8.185 -0.896
-8.314 -7.821 -0.490
-8.631 -8.078 -0.551
-8.668 -8.060 -0.606
-8.556 -8.390 -0.165
-8.668 -8.060 -0.606
-8.435 -8.114 -0.318
-9.408 -8.561 -0.844
-8.272 -7.946 -0.323
-8.280 -7.712 -0.565
-9.409 -8.561 -0.844
-9.085 -8.185 -0.897
-8.316 -7.821 -0.492
-8.335 -7.822 -0.510
-8.616 -8.207 -0.406
-9.409 -8.561 -0.844
-8.234 -7.949 -0.282
-8.208 -7.882 -0.323
-9.085 -8.185 -0.897
-8.272 -7.830 -0.440
-8.228 -7.721 -0.504
-8.513 -8.379 -0.133
-8.443 -8.579 0.137
-8.443 -8.579 0.137
-8.737 -8.728 -0.009
-8.436 -8.114 -0.319
-8.379 -8.119 -0.257
-9.409 -8.561 -0.844
-8.778 -8.380 -0.396
-8.728 -8.781 0.055
-9.085 -8.185 -0.897
-8.306 -8.332 0.029
-9.085 -8.185 -0.897
-8.316 -7.821 -0.492
-8.228 -7.721 -0.504
-9.409 -8.561 -0.844
-9.085 -8.185 -0.897
-8.402 -8.573 0.172
-9.085 -8.185 -0.897
-8.643 -8.207 -0.434
-8.643 -8.207 -0.434
-8.737 -8.728 -0.009
-8.316 -7.821 -0.493
-9.085 -8.185 -0.897
-8.379 -8.119 -0.257
-8.379 -8.119 -0.257
-8.616 -8.207 -0.406
-8.436 -8.114 -0.319
-8.616 -8.207 -0.406
-8.662 -8.692 0.029
-8.423 -8.146 -0.274
-8.306 -8.332 0.029
-8.660 -8.206 -0.451
-8.379 -8.119 -0.257
-9.104 -8.186 -0.915
-8.715 -8.260 -0.451
-9.409 -8.561 -0.844
-9.085 -8.185 -0.897
-9.409 -8.561 -0.844
-8.778 -8.380 -0.396
-9.409 -8.561 -0.844
-8.616 -8.207 -0.406
-9.085 -8.185 -0.897
-9.085 -8.185 -0.897
-9.409 -8.561 -0.844
-8.643 -8.207 -0.434
-8.778 -8.379 -0.396
-8.379 -8.119 -0.257
-8.306 -8.332 0.029
-8.316 -7.821 -0.493
-8.443 -8.579 0.137
-9.409 -8.561 -0.844
-8.316 -7.821 -0.493
-8.632 -8.078 -0.551
-8.471 -8.574 0.103
-9.034 -8.180 -0.851
-9.085 -8.185 -0.897
-9.085 -8.185 -0.897
-8.436 -8.114 -0.319
-9.085 -8.185 -0.897
-8.616 -8.207 -0.406
-9.127 -8.181 -0.943
-9.409 -8.561 -0.844
-8.668 -8.060 -0.607
-8.778 -8.379 -0.396
-8.379 -8.119 -0.257
-9.085 -8.185 -0.897
-8.228 -7.721 -0.504
-8.616 -8.207 -0.406
-8.273 -7.830 -0.440
-9.409 -8.561 -0.844
-9.409 -8.561 -0.844
-8.443 -8.579 0.137
-8.778 -8.380 -0.396
-8.284 -7.786 -0.496
-8.513 -8.379 -0.133
-9.085 -8.185 -0.897
-9.409 -8.561 -0.844
-8.939 -8.186 -0.749
-9.085 -8.185 -0.897
-8.379 -8.119 -0.257
-8.436 -8.114 -0.319
-9.409 -8.561 -0.844
-8.814 -8.377 -0.434
-8.814 -8.377 -0.434
-9.409 -8.561 -0.844
-8.504 -8.115 -0.385
-8.335 -7.822 -0.510
-4.104 -5.004 0.902
-4.136 -4.692 0.559
-4.104 -5.004 0.902
-4.136 -4.692 0.559
-4.768 -5.785 1.019
-4.136 -4.692 0.559
-4.104 -5.004 0.902
-4.104 -5.004 0.902
-4.111 -4.899 0.792
-4.522 -5.104 0.581
-4.103 -5.004 0.903
-5.068 -5.117 0.050
-4.009 -4.949 0.942
-5.094 -5.119 0.026
-4.139 -4.693 0.557
-4.327 -4.684 0.360
-5.068 -5.117 0.050
-4.522 -5.104 0.581
-4.768 -5.785 1.018
-4.755 -5.785 1.031
-4.103 -5.004 0.902
-4.139 -4.692 0.557
-4.768 -5.785 1.018
-4.768 -5.785 1.018
-4.139 -4.692 0.557
-4.768 -5.785 1.018
-4.619 -5.171 0.555
-4.522 -5.104 0.581
-4.009 -4.949 0.942
-4.103 -5.004 0.903
-4.009 -4.949 0.942
-4.009 -4.949 0.942
-5.094 -5.119 0.026
-4.103 -5.004 0.903
-5.068 -5.117 0.050
-4.334 -4.891 0.560
-4.334 -4.891 0.560
-5.094 -5.119 0.026
-4.334 -4.891 0.560
-4.279 -4.688 0.412
-5.068 -5.117 0.050
-5.068 -5.117 0.050
-6.819 -6.597 -0.221
-4.619 -5.171 0.555
-5.094 -5.119 0.026
-5.068 -5.117 0.050
-4.009 -4.949 0.942
-4.939 -5.126 0.188
-4.768 -5.785 1.018
-4.768 -5.785 1.018
-5.068 -5.117 0.050
-5.094 -5.119 0.026
-4.720 -5.132 0.414
-4.768 -5.785 1.018
-4.009 -4.949 0.943
-4.811 -5.794 0.985
-5.094 -5.119 0.026
-4.768 -5.785 1.018
-5.094 -5.119 0.026
-5.094 -5.119 0.026
-4.103 -5.005 0.903
-3.330 -4.029 0.701
-4.009 -4.949 0.943
-4.768 -5.785 1.018
-4.958 -5.127 0.171
-5.094 -5.119 0.026
-4.325 -5.188 0.866
-5.094 -5.119 0.026
-4.700 -5.133 0.433
-4.279 -4.688 0.412
-4.803 -5.795 0.994
-5.094 -5.119 0.026
-5.094 -5.119 0.026
-5.094 -5.119 0.026
-4.334 -4.891 0.560
-5.500 -4.941 -0.557
-4.810 -5.794 0.986
-4.755 -5.785 1.031
-4.720 -5.132 0.413
-5.094 -5.119 0.026
-4.700 -5.133 0.433
-4.009 -4.949 0.942
-4.460 -5.111 0.650
-7.302 -6.471 -0.828
-3.776 -4.941 1.166
-4.887 -5.099 0.212
-4.746 -5.106 0.362
-4.111 -4.800 0.693
-3.953 -4.990 1.037
-4.744 -5.107 0.364
-3.771 -4.943 1.172
-3.984 -4.677 0.696
-4.482 -5.114 0.633
-4.886 -5.099 0.214
-4.851 -5.101 0.251
-4.267 -4.666 0.402
-4.976 -5.092 0.117
-4.862 -5.097 0.236
-4.886 -5.099 0.214
-4.886 -5.099 0.214
-4.886 -5.099 0.214
-3.965 -4.854 0.890
-4.587 -4.765 0.181
-3.771 -4.943 1.172
-4.482 -5.113 0.633
-3.771 -4.943 1.172
-3.880 -4.662 0.784
-4.886 -5.099 0.214
-4.111 -4.800 0.693
-4.744 -5.107 0.364
-4.409 -5.081 0.671
-4.351 -5.093 0.742
-4.886 -5.099 0.214
-4.267 -4.666 0.402
-4.886 -5.099 0.214
-4.482 -5.114 0.633
-4.862 -5.097 0.235
-3.953 -4.990 1.037
-4.757 -5.785 1.030
-4.745 -5.107 0.363
-4.267 -4.666 0.402
-4.572 -4.505 -0.064
-3.963 -4.856 0.895
-3.963 -4.856 0.895
-4.874 -5.102 0.229