-11.507 -10.251 -1.245
-11.511 -10.266 -1.237
-14.035 -12.532 -1.387
-12.672 -13.020 0.338
-14.035 -12.531 -1.387
-10.631 -9.971 -0.593
-14.035 -12.531 -1.387
-11.511 -10.266 -1.237
-14.035 -12.532 -1.387
-13.695 -12.544 -1.109
-11.607 -11.666 -0.208
-13.841 -12.519 -1.271
-14.035 -12.531 -1.387
-9.805 -9.779 0.029
-11.669 -11.658 0.058
-11.238 -11.049 -0.126
-12.081 -11.699 -0.413
-14.378 -14.334 -0.203
-10.650 -10.580 0.004
-14.362 -14.252 -0.262
-11.586 -11.661 0.146
-14.032 -12.538 -1.378
-12.778 -11.880 -1.054
-13.690 -12.559 -1.090
-14.032 -12.538 -1.378
-12.112 -11.694 -0.440
-11.486 -10.265 -1.217
-14.199 -12.752 -1.462
-11.068 -11.338 0.198
-10.473 -9.952 -0.451
-14.198 -12.752 -1.462
-10.533 -10.569 0.104
-14.369 -14.481 -0.040
-14.369 -14.405 -0.135
-14.031 -12.536 -1.376
-14.366 -14.325 -0.207
-12.112 -11.694 -0.440
-11.513 -10.264 -1.241
-14.287 -14.617 0.331
-9.727 -9.786 0.115
-14.075 -12.541 -1.420
-14.248 -13.195 -0.984
-10.926 -11.368 0.344
-13.839 -12.524 -1.266
-14.360 -14.430 -0.112
-13.709 -14.180 0.364
-10.310 -10.378 0.016
-14.032 -12.537 -1.380
-10.316 -10.381 0.010
-14.199 -12.752 -1.463
-13.286 -12.544 -0.651
-10.979 -11.332 0.271
-9.787 -9.674 -0.021
-14.199 -12.752 -1.463
-10.475 -9.945 -0.460
-9.759 -9.777 0.074
-11.014 -11.300 0.322
-9.756 -9.781 0.080
-10.473 -9.951 -0.453
-10.473 -9.952 -0.452
-9.756 -9.784 0.082
-14.329 -13.919 -0.325
-14.199 -12.752 -1.463
-11.272 -10.409 -0.824
-14.420 -13.066 -1.274
-10.979 -11.327 0.273
-14.199 -12.752 -1.462
-13.776 -13.346 -0.357
-10.474 -9.858 -0.522
-14.582 -12.411 -2.069
-11.343 -10.982 -0.436
-12.224 -12.904 0.660
-12.898 -12.822 -0.103
-14.584 -12.410 -2.072
-9.508 -9.692 0.242
-11.067 -10.826 -0.158
-11.019 -11.298 0.325
-10.547 -10.574 0.101
-13.935 -13.316 -0.557
-13.079 -12.645 -0.451
-11.015 -11.298 0.330
-12.898 -12.821 -0.103
-13.915 -12.313 -1.510
-14.599 -13.127 -1.396
-14.583 -12.410 -2.070
-14.199 -12.752 -1.463
-11.164 -11.290 0.184
-11.071 -11.336 0.197
-14.356 -14.230 -0.220
-12.695 -13.694 0.935
-14.002 -12.538 -1.350
-11.368 -11.245 -0.057
-9.097 -8.350 -0.657
-10.308 -10.387 0.024
-9.911 -9.695 -0.176
-11.517 -10.258 -1.250
-11.022 -11.610 0.668
-14.339 -14.029 -0.377
-14.028 -12.538 -1.375
-14.247 -13.197 -0.980
-11.491 -10.260 -1.225
-11.422 -11.370 -0.012
-10.310 -10.380 0.017
-14.364 -14.226 -0.281
-16.894 -16.211 -0.593
-14.087 -13.232 -0.779
-14.379 -14.354 -0.187
-11.514 -10.260 -1.244
-11.391 -11.244 -0.088
-9.130 -8.637 -0.409
-15.760 -15.484 -0.205
-14.248 -13.195 -0.983
-9.829 -9.664 -0.126
-10.299 -10.389 0.029
-11.391 -11.244 -0.088
-11.519 -10.309 -1.263
-12.085 -11.701 -0.417
-9.724 -9.687 -0.006
-11.422 -11.370 -0.012
-11.011 -11.356 0.274
-9.733 -9.791 0.113
-11.422 -11.370 -0.012
-11.242 -11.504 -0.311
-10.197 -10.487 0.371
-11.036 -11.364 0.243
-14.068 -13.005 -0.664
-10.485 -10.570 0.153
-11.422 -11.369 -0.012
-12.628 -12.668 -0.020
-11.242 -11.504 -0.311
-15.808 -16.447 0.695
-11.036 -11.356 0.245
-10.318 -10.372 0.003
-11.432 -11.371 -0.022
-14.370 -13.763 -0.709
-13.658 -13.264 -0.320
-10.450 -9.840 -0.510
-10.544 -10.592 0.122
-11.432 -11.244 -0.128
-10.464 -9.832 -0.534
-13.747 -13.518 -0.127
-9.549 -9.526 0.068
-14.370 -14.262 -0.247
-10.329 -10.376 -0.013
-10.329 -10.375 -0.013
-14.028 -12.537 -1.375
-11.242 -11.504 -0.311
-13.709 -14.168 0.371
-12.802 -12.700 -0.089
-14.077 -13.181 -0.828
-12.785 -11.880 -1.062
-13.671 -12.964 -0.614
-11.055 -11.021 0.025
-14.101 -14.288 0.139
-14.028 -12.537 -1.375
-10.179 -9.782 -0.335
-9.556 -8.889 -0.592
-11.244 -11.473 -0.347
-12.665 -12.378 -0.224
-11.391 -11.244 -0.088
-13.729 -12.513 -1.163
-9.746 -9.780 0.089
-14.349 -13.834 -0.425
-11.039 -11.357 0.244
-12.726 -12.407 -0.251
-13.733 -13.276 -0.385
-11.519 -11.197 -0.673
-12.807 -12.416 -0.322
-12.887 -12.847 -0.066
-15.805 -16.422 0.679
-14.351 -13.830 -0.430
-9.517 -9.626 0.186
-14.182 -14.634 0.388
-14.029 -12.536 -1.377
-11.009 -10.381 -0.592
-11.040 -11.598 0.638
-13.659 -13.264 -0.322
-14.029 -12.536 -1.377
-14.565 -14.777 0.292
-13.671 -12.964 -0.614
-11.391 -11.244 -0.088
-11.526 -11.106 -0.328
-13.658 -13.266 -0.318
-9.491 -9.228 -0.201
-14.660 -14.980 0.162
-10.548 -10.575 0.106
-14.370 -14.421 -0.115
-13.977 -14.063 0.005
-10.316 -9.854 -0.397
-9.917 -9.702 -0.182
-13.998 -12.530 -1.349
-11.018 -11.357 0.267
-9.072 -8.366 -0.620
-11.242 -11.504 -0.311
-9.080 -8.353 -0.641
-11.884 -11.373 -0.674
-13.637 -14.152 0.391
-11.242 -11.504 -0.311
-10.954 -11.350 0.313
-14.029 -12.537 -1.375
-13.733 -13.275 -0.386
-11.093 -11.636 0.621
-14.029 -12.535 -1.377
-11.966 -11.192 -0.811
-10.400 -10.584 0.263
-11.093 -11.636 0.621
-12.726 -12.407 -0.251
-13.968 -13.970 -0.003
-11.391 -11.244 -0.088
-14.382 -14.340 -0.201
-12.726 -12.408 -0.250
-14.029 -12.537 -1.375
-11.242 -11.504 -0.311
-14.029 -12.537 -1.375
-12.887 -12.843 -0.069
-12.807 -12.412 -0.327
-12.542 -12.027 -0.437
-14.029 -12.537 -1.375
-15.230 -15.470 0.350
-14.249 -13.195 -0.984
-11.423 -11.370 -0.012
-16.904 -16.244 -0.564
-13.731 -13.275 -0.384
-16.004 -16.077 0.120
-11.391 -11.244 -0.088
-11.438 -11.223 -0.146
-11.038 -11.356 0.244
-11.040 -11.598 0.637
-11.241 -11.504 -0.311
-12.726 -12.407 -0.251
-9.097 -8.352 -0.658
-10.320 -9.853 -0.402
-11.045 -10.395 -0.619
-14.031 -12.532 -1.383
-12.047 -12.096 -0.015
-13.734 -13.274 -0.388
-13.173 -13.650 0.548
-8.879 -8.547 -0.326
-14.062 -13.238 -0.750
-12.726 -12.408 -0.250
-13.173 -13.653 0.551
-11.075 -11.397 0.382
-10.638 -10.613 0.028
-14.185 -14.576 0.358
-10.332 -10.377 -0.020
-16.903 -16.272 -0.535
-14.418 -13.775 -0.761
-14.248 -13.547 -0.616
-15.158 -16.104 1.015
-12.807 -12.413 -0.329
-14.029 -12.536 -1.377
-13.838 -12.527 -1.260
-9.738 -9.791 0.108
-10.027 -9.775 -0.187
-13.906 -13.136 -0.702
-12.887 -13.751 0.864
-12.875 -12.849 -0.050
-9.275 -9.150 -0.090
-10.975 -10.410 -0.539
-9.102 -8.356 -0.661
-11.433 -11.244 -0.129
-10.507 -10.596 0.155
-10.364 -9.844 -0.461
-13.671 -12.964 -0.614
-14.071 -12.543 -1.416
-14.381 -14.427 -0.125
-14.028 -12.537 -1.375
-10.900 -11.333 0.286
-11.035 -11.367 0.250
-9.797 -10.289 0.230
-14.044 -14.192 0.087
-9.697 -9.663 0.001
-12.681 -12.569 -0.050
-12.874 -12.847 -0.051
-13.994 -13.388 -0.565
-13.740 -12.758 -0.984
-11.072 -11.341 0.191
-10.992 -10.933 -0.126
-11.273 -10.408 -0.826
-12.830 -12.902 0.069
-14.074 -12.597 -1.331
-14.538 -12.412 -2.026
-14.339 -13.929 -0.322
-13.931 -13.316 -0.553
-10.966 -11.363 0.394
-15.722 -16.268 0.640
-13.924 -13.700 -0.119
-12.905 -13.679 0.407
-13.931 -13.316 -0.553
-10.476 -9.944 -0.462
-10.588 -10.586 0.072
-9.667 -10.025 0.092
-9.918 -9.700 -0.183
-11.567 -11.108 -0.366
-11.356 -11.243 -0.045
-14.909 -15.836 0.984
-12.658 -12.754 0.045
-11.741 -11.630 -0.182
-12.971 -12.283 -0.631
-10.977 -11.353 0.263
-11.133 -10.956 -0.124
-14.614 -13.121 -1.416
-11.768 -12.288 0.628
-15.765 -15.469 -0.220
-13.778 -13.484 -0.194
-12.343 -13.096 0.795
-16.852 -16.222 -0.578
-16.919 -16.269 -0.554
-11.506 -10.358 -1.112
-10.472 -9.953 -0.451
-12.217 -13.084 0.898
-11.146 -11.192 0.107
-12.216 -13.093 0.912
-13.721 -14.086 0.291
-11.160 -11.289 0.188
-10.402 -9.845 -0.497
-10.809 -11.343 -0.104
-9.050 -8.364 -0.599
-11.075 -11.396 0.381
-12.968 -12.280 -0.630
-15.613 -18.145 1.367
-9.756 -9.711 -0.009
-14.611 -13.122 -1.413
-12.903 -12.821 -0.109
-13.011 -12.269 -0.688
-14.611 -13.122 -1.413
-10.787 -10.994 0.272
-10.087 -10.267 0.221
-10.077 -10.047 0.022
-14.613 -13.122 -1.415
-11.056 -11.037 0.032
-9.790 -9.622 -0.092
-11.057 -11.035 0.022
-13.592 -14.527 0.596
-14.041 -13.740 -0.219
-11.081 -11.316 0.180
-9.696 -9.528 -0.080
-12.362 -13.630 1.209
-15.757 -15.466 -0.215
-9.736 -9.695 -0.010
-11.049 -10.995 0.017
-16.780 -16.255 -0.431
-9.923 -9.700 -0.188
-10.965 -11.306 0.286
-13.723 -14.058 0.280
-13.724 -14.076 0.297
-9.066 -8.358 -0.622
-9.790 -9.607 -0.108
-13.723 -14.087 0.302
-12.246 -13.102 0.884
-16.918 -16.270 -0.552
-15.474 -16.161 0.716
-15.504 -16.389 0.952
-13.012 -12.269 -0.689
-12.932 -13.725 0.802
-9.065 -8.360 -0.620
-9.159 -8.623 -0.451
-14.614 -13.122 -1.416
-9.068 -8.358 -0.624
-9.782 -9.781 0.052
-15.757 -15.467 -0.215
-9.732 -9.689 -0.011
-8.912 -8.566 -0.364
-15.757 -15.468 -0.214
-15.628 -16.363 0.818
-11.359 -11.243 -0.049
-9.704 -9.665 -0.000
-15.552 -16.327 0.815
-9.704 -9.664 -0.002
-13.687 -14.629 0.967
-9.700 -9.663 0.062
-11.105 -11.585 0.561
-14.378 -13.804 -0.481
-9.582 -8.876 -0.632
-9.844 -9.774 -0.015
-13.730 -14.073 0.285
-15.769 -15.467 -0.228
-13.638 -14.628 0.688
-15.799 -15.468 -0.257
-14.375 -13.801 -0.481
-11.423 -11.370 -0.012
-9.773 -9.793 0.073
-13.729 -14.076 0.290
-11.041 -10.999 0.019
-11.772 -12.282 0.619
-9.110 -9.250 0.172
-7.883 -7.628 -0.172
-10.388 -10.416 0.109
-11.017 -11.058 0.037
-9.060 -8.361 -0.612
-14.104 -13.693 -0.338
-10.074 -10.038 0.022
-8.904 -8.529 -0.364
-11.423 -11.370 -0.012
-10.980 -11.328 0.274
-9.704 -9.660 -0.007
-11.103 -11.586 0.564
-10.350 -10.560 0.267
-9.738 -9.694 -0.010
-10.352 -10.560 0.136
-9.844 -9.786 -0.005
-11.389 -11.242 -0.087
-14.619 -13.120 -1.423
-16.972 -16.254 -0.617
-11.389 -11.242 -0.087
-11.389 -11.242 -0.087
-11.247 -11.504 -0.316
-11.389 -11.242 -0.087
-7.913 -7.787 -0.054
-9.729 -9.684 -0.012
-13.205 -13.608 0.281
-16.972 -16.262 -0.615
-11.900 -12.516 0.590
-7.913 -7.787 -0.050
-15.798 -15.477 -0.250
-11.389 -11.242 -0.087
-14.619 -13.120 -1.423
-10.463 -9.749 -0.619
-14.619 -13.119 -1.424
-9.729 -9.684 -0.013
-10.087 -10.028 -0.001
-9.501 -9.234 -0.202
-15.798 -15.468 -0.257
-13.884 -13.400 -0.391
-11.442 -10.319 -1.077
-8.936 -9.324 0.428
-9.303 -8.617 -0.600
-9.502 -9.236 -0.208
-11.064 -11.025 0.011
-12.966 -12.242 -0.655
-7.839 -7.762 0.005
-11.437 -11.222 -0.145
-10.484 -10.022 -0.373
-9.073 -8.357 -0.630
-11.178 -11.034 -0.085
-7.883 -7.625 -0.174
-14.061 -13.722 -0.256
-16.973 -16.261 -0.616
-13.747 -14.461 0.828
-10.485 -9.821 -0.566
-9.726 -9.623 -0.027
-15.799 -15.468 -0.257
-14.839 -16.044 1.258
-12.936 -12.818 -0.148
-11.176 -11.034 -0.083
-14.133 -13.729 -0.316
-11.389 -11.242 -0.087
-11.044 -11.597 0.632
-7.914 -7.788 -0.049
-13.126 -13.618 0.563
-9.073 -8.354 -0.632
-9.073 -8.356 -0.631
-11.525 -11.105 -0.328
-14.651 -13.123 -1.453
-8.972 -8.359 -0.524
-11.193 -10.336 -0.821
-15.806 -15.467 -0.263
-11.107 -11.585 0.559
-14.069 -13.717 -0.271
-15.804 -15.441 -0.283
-9.482 -9.238 -0.182
-16.968 -16.260 -0.611
-15.252 -14.415 -0.806
-14.073 -13.310 -0.703
-9.701 -9.665 0.002
-13.407 -13.656 0.313
-8.952 -8.348 -0.584
-10.938 -11.418 0.253
-11.320 -10.391 -0.887
-12.811 -12.699 -0.104
-12.754 -12.687 -0.060
-10.569 -9.858 -0.618
-11.070 -11.392 0.366
-9.722 -9.597 -0.046
-13.511 -14.108 0.696
-14.004 -13.816 -0.106
-9.784 -9.683 -0.073
-14.932 -15.846 0.394
-16.074 -16.358 0.258
-14.678 -13.097 -1.501
-17.314 -16.241 -0.980
-16.545 -17.986 0.783
-15.581 -16.372 0.856
-17.314 -16.242 -0.979
-15.835 -15.504 -0.296
-15.600 -16.374 0.835
-15.601 -16.362 0.825
-14.082 -13.756 -0.256
-15.759 -15.491 -0.199
-16.944 -16.269 -0.580
-13.752 -13.803 -0.375
-13.025 -13.819 0.799
-14.678 -13.097 -1.501
-15.835 -15.504 -0.295
-15.866 -15.504 -0.325
-15.597 -16.345 0.790
-15.836 -15.504 -0.297
-14.893 -14.505 -0.284
-15.601 -16.370 0.830
-15.601 -16.369 0.831
-16.546 -17.986 0.782
-14.164 -13.735 -0.357
-17.493 -16.265 -1.144
-14.609 -13.129 -1.403
-17.584 -16.628 -0.873
-13.370 -12.820 -0.563
-17.338 -16.240 -1.007
-13.035 -13.090 0.134
-15.583 -16.370 0.854
-14.167 -13.709 -0.379
-14.677 -13.098 -1.500
-15.836 -15.504 -0.297
-15.866 -15.504 -0.325
-14.603 -13.443 -1.136
-13.749 -13.810 -0.367
-12.963 -12.615 -0.340
-16.944 -16.271 -0.579
-15.598 -16.380 0.839
-15.580 -16.373 0.859
-15.865 -15.504 -0.324
-16.944 -16.270 -0.579
-15.599 -16.369 0.831
-14.115 -15.684 1.668
-13.792 -14.489 0.808
-15.640 -16.352 0.753
-13.749 -13.810 -0.367
-17.452 -16.265 -1.100
-15.583 -16.334 0.777
-16.945 -16.269 -0.580
-15.641 -16.321 0.711
-16.945 -16.269 -0.581
-13.792 -14.489 0.809
-14.677 -13.098 -1.499
-15.866 -15.504 -0.325
-14.608 -13.130 -1.402
-15.583 -16.374 0.858
-13.087 -13.701 0.617
-14.676 -13.098 -1.498
-16.944 -16.271 -0.578
-16.546 -17.987 0.783
-15.582 -16.365 0.848
-16.944 -16.271 -0.578
-13.833 -13.844 -0.429
-14.676 -13.098 -1.498
-14.154 -14.442 0.412
-14.603 -13.132 -1.396
-13.956 -13.558 -0.454
-15.759 -15.479 -0.209
-13.854 -12.313 -1.450
-14.597 -13.134 -1.387
-15.061 -16.332 1.346
-13.561 -11.977 -1.822
-15.807 -15.521 -0.249
-15.807 -15.521 -0.249
-14.677 -13.097 -1.500
-12.297 -13.112 0.859
-14.306 -13.743 -0.474
-14.157 -13.689 -0.394
-13.942 -14.428 0.603
-16.910 -16.274 -0.540
-15.759 -15.477 -0.210
-14.162 -13.700 -0.390
-14.677 -13.097 -1.500
-13.786 -14.485 0.811
-14.329 -15.632 1.079
-16.945 -16.271 -0.579
-14.677 -13.097 -1.500
-15.602 -16.368 0.830
-14.048 -15.708 1.757
-15.644 -16.357 0.760
-12.718 -13.635 0.858
-14.082 -13.743 -0.263
-13.944 -14.440 0.613
-14.528 -12.416 -2.011
-14.354 -13.834 -0.786
-14.354 -13.834 -0.786
-14.258 -12.771 -1.494
-14.677 -13.097 -1.500
-17.032 -16.298 -0.645
-14.993 -13.312 -1.652
-14.677 -13.097 -1.500
-14.363 -13.803 -0.455
-14.528 -12.416 -2.011
-13.833 -13.844 -0.429
-13.906 -13.587 -0.424
-15.634 -16.315 0.705
-15.638 -16.358 0.763
-13.508 -13.594 0.049
-14.526 -12.419 -2.006
-13.171 -13.691 0.543
-14.603 -13.131 -1.396
-14.526 -12.419 -2.006
-17.242 -16.660 -0.490
-12.875 -12.924 0.020
-13.736 -13.900 0.084
-15.759 -15.476 -0.211
-15.759 -15.482 -0.208
-14.082 -13.745 -0.262
-14.611 -13.128 -1.407
-12.908 -12.828 -0.109
-14.611 -13.128 -1.407
-15.835 -15.504 -0.295
-14.174 -13.700 -0.400
-16.901 -16.222 -0.585
-15.650 -16.335 0.734
-15.647 -16.325 0.699
-15.646 -16.315 0.693
-15.759 -15.486 -0.205
-15.759 -15.492 -0.203
-14.791 -13.829 -1.325
-17.246 -16.660 -0.497
-15.731 -15.493 -0.166
-14.676 -13.099 -1.497
-14.362 -13.811 -0.454
-12.887 -13.710 0.850
-15.135 -16.658 1.609
-13.901 -13.588 -0.417
-13.558 -13.576 -0.174
-13.558 -13.576 -0.174
-14.526 -12.419 -2.005
-14.326 -13.488 -0.719
-15.833 -15.505 -0.292
-15.566 -16.399 0.901
-14.676 -13.099 -1.497
-15.639 -16.321 0.710
-16.908 -16.276 -0.537
-13.900 -13.589 -0.416
-14.676 -13.099 -1.497
-14.525 -12.420 -2.005
-17.031 -16.302 -0.639
-16.908 -16.275 -0.537
-15.581 -16.372 0.857
-15.758 -15.485 -0.203
-15.581 -16.372 0.857
-15.581 -16.372 0.858
-15.551 -16.350 0.831
-15.834 -15.505 -0.293
-15.834 -15.505 -0.293
-14.691 -14.188 -0.431
-13.795 -14.492 0.809
-14.361 -13.812 -0.452
-14.606 -13.131 -1.399
-15.642 -16.358 0.760
-14.606 -13.131 -1.399
-16.943 -16.272 -0.576
-13.766 -14.483 0.827
-16.943 -16.272 -0.576
-16.943 -16.271 -0.576
-15.581 -16.371 0.856
-14.046 -13.736 -0.232
-16.908 -16.275 -0.538
-14.362 -13.812 -0.453
-13.040 -13.099 0.139
-15.131 -16.613 1.565
-13.749 -14.105 0.307
-15.374 -15.432 -0.263
-14.676 -13.099 -1.496
-16.908 -16.283 -0.529
-13.603 -11.969 -1.844
-16.904 -16.298 -0.510
-13.040 -13.100 0.139
-15.756 -15.460 -0.215
-14.045 -13.747 -0.213
-15.206 -15.542 0.390
-14.605 -13.132 -1.397
-17.031 -16.302 -0.640
-13.040 -13.096 0.136
-13.587 -14.336 0.777
-13.804 -14.101 0.251
-16.909 -16.275 -0.538
-14.605 -13.132 -1.398
-13.040 -13.100 0.139
-15.865 -15.505 -0.323
-13.805 -14.107 0.259
-15.581 -16.374 0.860
-15.581 -16.373 0.858
-12.909 -12.829 -0.107
-14.605 -13.132 -1.398
-16.909 -16.279 -0.534
-16.909 -16.275 -0.538
-13.795 -14.492 0.809
-15.854 -15.510 -0.312
-15.642 -16.348 0.744
-13.602 -11.968 -1.844
-15.754 -16.527 0.830
-15.605 -16.198 0.630
-15.760 -15.479 -0.210
-15.643 -16.320 0.706
-14.049 -13.736 -0.232
-15.854 -15.511 -0.311
-14.249 -13.194 -0.985
-13.841 -12.521 -1.270
-16.191 -16.423 0.305
-14.241 -13.768 -0.388
-14.310 -13.738 -0.482
-14.608 -13.123 -1.409
-14.050 -13.737 -0.229
-13.003 -13.054 0.126
-15.657 -16.349 0.726
-15.597 -16.364 0.835
-14.046 -13.741 -0.223
-14.607 -13.124 -1.408
-11.913 -12.913 0.999
-15.657 -16.353 0.748
-15.884 -15.499 -0.346
-14.063 -13.731 -0.255
-14.611 -13.122 -1.413
-15.600 -16.355 0.819
-14.611 -13.122 -1.413
-15.600 -16.357 0.827
-15.884 -15.500 -0.346
-15.640 -16.355 0.774
-15.600 -16.363 0.830
-16.921 -16.269 -0.557
-13.199 -13.610 0.288
-16.973 -16.263 -0.615
-13.718 -14.078 0.301
-15.779 -15.473 -0.233
-16.956 -16.264 -0.597
-15.600 -16.362 0.829
-15.600 -16.354 0.822
-14.061 -15.698 1.735
-14.611 -13.122 -1.413
-15.873 -15.505 -0.335
-16.921 -16.267 -0.559
-15.653 -16.324 0.686
-13.002 -13.058 0.131
-16.921 -16.268 -0.558
-14.065 -13.728 -0.256
-15.600 -16.363 0.830
-15.600 -16.363 0.830
-14.061 -15.699 1.735
-13.494 -13.515 -0.141
-14.376 -14.407 -0.157
-14.252 -13.760 -0.402
-13.839 -12.515 -1.270
-16.982 -16.269 -0.625
-14.511 -14.311 -0.357
-15.873 -16.426 0.628
-13.656 -13.267 -0.316
-15.813 -15.473 -0.266
-16.843 -16.618 -0.166
-13.365 -12.811 -0.565
-14.063 -13.728 -0.253
-16.972 -16.266 -0.611
-15.872 -15.511 -0.327
-15.650 -16.362 0.764
-13.768 -14.620 0.658
-14.605 -13.124 -1.405
-13.742 -14.464 0.836
-14.754 -15.538 0.838
-13.708 -14.078 0.313
-13.742 -14.464 0.836
-16.972 -16.263 -0.615
-15.627 -16.364 0.802
-16.921 -16.268 -0.557
-14.064 -13.726 -0.256
-12.830 -12.340 -0.355
-16.972 -16.263 -0.615
-16.904 -16.133 -0.683
-13.742 -14.466 0.837
-15.673 -15.421 -0.174
-15.639 -16.260 0.644
-15.053 -15.711 0.694
-14.375 -13.814 -0.485
-14.378 -13.807 -0.476
-12.236 -13.095 0.900
-14.797 -15.958 1.222
-14.083 -13.703 -0.307
-12.236 -13.097 0.887
-14.064 -13.728 -0.253
-14.378 -13.806 -0.474
-14.318 -14.901 0.620
-13.708 -14.078 0.312
-15.590 -16.367 0.844
-12.237 -13.100 0.890
-14.064 -13.725 -0.258
-14.064 -13.726 -0.257
-15.627 -16.370 0.810
-14.064 -13.726 -0.258
-15.745 -15.503 -0.212
-12.747 -13.296 0.643
-12.237 -13.098 0.890
-15.573 -16.351 0.820
-16.921 -16.268 -0.558
-14.606 -13.124 -1.405
-15.778 -15.471 -0.233
-15.778 -15.471 -0.233
-16.921 -16.267 -0.558
-14.606 -13.124 -1.405
-14.377 -13.806 -0.475
-13.742 -14.465 0.836
-14.063 -13.726 -0.249
-15.590 -16.367 0.843
-16.921 -16.269 -0.556
-13.009 -12.274 -0.682
-13.708 -14.078 0.312
-12.827 -13.299 0.569
-14.064 -13.726 -0.257
-16.970 -16.259 -0.615
-12.805 -12.671 -0.122
-13.107 -13.560 0.411
-14.062 -13.729 -0.251
-15.590 -16.356 0.834
-12.236 -13.099 0.900
-14.376 -13.808 -0.472
-16.920 -16.269 -0.556
-15.776 -15.472 -0.231
-15.583 -16.279 0.773
-14.138 -13.703 -0.361
-14.217 -13.707 -0.436
-14.064 -13.726 -0.256
-12.746 -13.295 0.645
-16.943 -16.158 -0.694
-16.921 -16.267 -0.558
-16.970 -16.267 -0.607
-12.237 -13.101 0.891
-16.970 -16.268 -0.606
-16.970 -16.264 -0.611
-16.971 -16.266 -0.602
-16.970 -16.265 -0.610
-16.970 -16.264 -0.611
-16.970 -16.264 -0.610
-16.533 -16.046 -0.520
-16.970 -16.263 -0.612
-17.003 -16.240 -0.674
-16.970 -16.259 -0.616
-14.136 -13.731 -0.318
-16.970 -16.263 -0.612
-11.867 -12.127 0.327
-11.867 -12.127 0.327
-11.867 -12.127 0.327
-11.867 -12.127 0.327
-11.827 -12.109 0.351
-13.798 -13.482 -0.707
-11.804 -12.109 0.374
-13.797 -13.477 -0.696
-11.804 -12.109 0.374
-11.804 -12.109 0.374
-11.873 -12.120 0.315
-12.598 -11.870 -0.737
-11.827 -12.115 0.352
-11.870 -12.131 0.329
-11.801 -12.120 0.388
-11.801 -12.121 0.388
-12.390 -11.753 -0.654
-11.871 -12.130 0.328
-11.801 -12.120 0.387
-11.801 -12.120 0.387
-11.801 -12.120 0.387
-12.390 -11.753 -0.653
-11.871 -12.130 0.327
-11.871 -12.130 0.327
-12.421 -11.758 -0.680
-12.390 -11.754 -0.653
-11.952 -11.739 -0.060
-11.801 -12.120 0.388
-12.335 -11.948 -0.391
-13.793 -13.521 -0.687
-12.390 -11.752 -0.655
-12.067 -11.690 -0.308
-12.236 -12.881 0.628
-12.421 -11.758 -0.680
-12.174 -11.700 -0.416
-11.528 -12.186 0.751
-11.824 -12.133 0.376
-11.807 -12.137 0.379
-12.598 -11.870 -0.737
-13.788 -13.484 -0.676
-11.788 -12.128 0.409
-11.800 -12.120 0.388
-12.534 -11.868 -0.675
-11.800 -12.120 0.388
-11.110 -11.328 0.040
-11.453 -10.888 -0.575
-12.421 -11.758 -0.680
-11.871 -12.130 0.328
-12.598 -11.870 -0.737
-12.534 -11.869 -0.674
-11.313 -12.034 0.804
-12.598 -11.870 -0.737
-12.421 -11.758 -0.680
-11.801 -12.120 0.387
-11.825 -12.117 0.361
-12.174 -11.699 -0.416
-11.993 -11.739 -0.100
-12.598 -11.870 -0.737
-13.789 -13.484 -0.676
-10.829 -11.400 0.583
-11.870 -12.130 0.328
-11.870 -12.138 0.335
-12.336 -11.950 -0.392
-12.598 -11.870 -0.737
-13.668 -13.330 -0.656
-12.335 -11.823 -0.434
-12.420 -11.758 -0.679
-11.871 -12.131 0.328
-11.339 -10.896 -0.453
-11.802 -12.167 0.425
-12.390 -11.756 -0.652
-11.993 -11.739 -0.100
-11.993 -11.739 -0.100
-12.299 -11.954 -0.351
-11.801 -12.119 0.386
-11.453 -10.888 -0.575
-11.797 -12.153 0.417
-11.819 -12.150 0.396
-12.239 -11.777 -0.451
-10.827 -11.356 0.569
-12.210 -11.774 -0.425
-12.174 -11.699 -0.416
-12.598 -11.875 -0.734
-11.453 -10.888 -0.575
-12.239 -11.776 -0.453
-11.789 -12.133 0.409
-11.794 -12.147 0.413
-12.174 -11.699 -0.416
-13.790 -13.532 -0.680
-11.743 -12.210 0.554
-11.825 -12.118 0.362
-11.788 -12.118 0.397
-9.662 -10.311 0.662
-11.891 -11.952 0.154
-11.528 -12.186 0.750
-12.174 -11.699 -0.416
-11.758 -12.040 0.354
-12.598 -11.870 -0.737
-11.801 -12.120 0.388
-13.892 -13.489 -0.782
-11.906 -11.943 0.134
-11.824 -12.119 0.364
-11.893 -12.129 0.304
-12.598 -11.870 -0.737
-11.824 -12.118 0.362
-12.174 -11.699 -0.416
-11.870 -12.131 0.328
-11.801 -12.120 0.388
-9.726 -10.344 0.628
-11.528 -12.187 0.751
-12.299 -11.949 -0.355
-9.583 -9.803 0.159
-11.871 -12.130 0.327
-13.728 -13.495 -0.621
-11.757 -12.038 0.352
-11.824 -12.121 0.364
-12.174 -11.699 -0.416
-11.870 -12.131 0.328
-11.824 -12.118 0.362
-12.575 -11.895 -0.695
-11.428 -12.168 0.834
-12.421 -11.758 -0.680
-11.871 -12.130 0.327
-9.673 -9.425 -0.142
-12.534 -11.869 -0.674
-11.823 -12.090 0.330
-11.312 -12.057 0.828
-11.993 -11.739 -0.100
-11.482 -12.141 0.725
-12.538 -11.894 -0.659
-11.993 -11.739 -0.100
-12.421 -11.758 -0.680
-11.550 -12.162 0.704
-11.993 -11.739 -0.100
-9.726 -10.334 0.618
-11.453 -10.888 -0.575
-12.239 -11.777 -0.452
-12.575 -11.895 -0.695
-11.993 -11.739 -0.100
-12.576 -11.894 -0.697
-11.953 -11.740 -0.060
-13.788 -13.485 -0.675
-12.335 -11.950 -0.390
-11.870 -12.131 0.328
-13.728 -13.495 -0.621
-11.824 -12.120 0.364
-12.534 -11.869 -0.674
-12.240 -11.777 -0.452
-11.824 -12.119 0.363
-13.691 -13.472 -0.569
-12.174 -11.699 -0.415
-11.336 -12.174 0.933
-9.621 -10.648 1.055
-12.174 -11.699 -0.416
-12.334 -11.950 -0.390
-12.192 -12.885 0.676
-12.136 -11.694 -0.378
-12.575 -11.894 -0.696
-11.780 -12.044 0.361
-10.167 -11.345 1.112
-11.311 -12.132 0.911
-13.692 -13.491 -0.585
-12.534 -11.869 -0.674
-12.534 -11.872 -0.671
-9.669 -9.392 -0.157
-12.577 -11.894 -0.698
-13.690 -13.472 -0.569
-9.852 -10.404 0.562
-12.421 -11.758 -0.680
-11.453 -10.889 -0.575
-13.883 -13.530 -0.761
-12.174 -11.699 -0.415
-11.870 -12.131 0.328
-11.314 -12.033 0.801
-9.726 -10.352 0.636
-12.421 -11.758 -0.680
-12.174 -11.699 -0.416
-10.871 -10.956 0.207
-11.869 -12.135 0.334
-9.660 -10.272 0.632
-11.538 -12.174 0.728
-11.869 -12.136 0.334
-11.869 -12.136 0.334
-12.568 -11.898 -0.684
-12.568 -11.898 -0.684
-12.598 -11.870 -0.737
-13.692 -13.490 -0.586
-13.894 -13.499 -0.785
-11.824 -12.118 0.362
-9.619 -10.685 1.097
-12.421 -11.758 -0.680
-9.583 -9.802 0.159
-11.550 -12.162 0.703
-9.622 -10.655 1.067
-11.784 -12.158 0.431
-11.811 -12.087 0.332
-9.661 -10.282 0.632
-11.548 -12.164 0.708
-9.583 -9.807 0.162
-9.415 -9.272 -0.041
-12.421 -11.758 -0.680
-11.361 -11.141 -0.139
-11.550 -12.162 0.704
-11.655 -12.056 0.475
-12.576 -11.895 -0.697
-12.421 -11.758 -0.680
-11.825 -12.118 0.361
-12.213 -11.775 -0.427
-11.744 -12.206 0.552
-11.787 -12.165 0.432
-9.852 -10.403 0.562
-12.577 -11.894 -0.697
-11.801 -12.120 0.387
-12.534 -11.869 -0.674
-11.452 -12.190 0.829
-11.825 -12.118 0.362
-9.583 -9.799 0.157
-12.598 -11.870 -0.737
-11.337 -12.177 0.934
-12.577 -11.894 -0.698
-12.240 -11.778 -0.452
-11.410 -11.317 0.060
-10.654 -10.951 0.400
-11.473 -11.867 0.459
-9.443 -10.684 1.279
-11.911 -11.968 0.150
-9.583 -9.806 0.163
-13.692 -13.493 -0.583
-12.420 -11.758 -0.679
-12.577 -11.893 -0.698
-11.926 -11.737 -0.035
-12.174 -11.699 -0.416
-12.421 -11.758 -0.680
-12.577 -11.894 -0.698
-12.100 -11.694 -0.343
-12.598 -11.870 -0.737
-11.609 -11.642 0.152
-11.766 -11.944 0.271
-11.825 -12.118 0.362
-11.352 -10.903 -0.486
-11.549 -12.162 0.704
-11.870 -12.131 0.329
-12.577 -11.894 -0.698
-12.577 -11.895 -0.696
-11.337 -12.177 0.934
-11.313 -12.034 0.804
-12.421 -11.758 -0.680
-12.361 -11.938 -0.375
-10.832 -11.389 0.585
-11.409 -11.311 0.054
-12.576 -11.894 -0.696
-11.433 -12.043 0.689
-9.660 -10.312 0.649
-12.534 -11.869 -0.674
-12.577 -11.894 -0.698
-8.907 -9.585 0.749
-12.174 -11.699 -0.416
-11.756 -11.934 0.274
-10.985 -11.301 0.439
-13.692 -13.491 -0.585
-13.692 -13.491 -0.585
-9.583 -9.802 0.159
-11.825 -12.121 0.364
-11.824 -12.116 0.361
-13.691 -13.472 -0.569
-12.575 -11.892 -0.698
-12.099 -11.696 -0.340
-11.127 -12.590 0.263
-11.825 -12.119 0.363
-12.575 -11.896 -0.695
-11.547 -12.164 0.708
-11.787 -12.113 0.387
-12.575 -11.895 -0.695
-10.939 -12.257 0.321
-11.547 -12.164 0.708
-12.174 -11.699 -0.416
-12.174 -11.699 -0.416
-12.575 -11.894 -0.696
-11.498 -11.340 -0.028
-12.575 -11.895 -0.695
-11.433 -12.052 0.702
-12.210 -11.775 -0.425
-11.825 -12.119 0.363
-9.726 -10.357 0.641
-12.174 -11.699 -0.416
-11.853 -11.958 0.200
-12.174 -11.699 -0.416
-11.870 -12.131 0.328
-11.612 -11.665 0.174
-12.388 -11.905 -0.422
-11.444 -10.876 -0.552
-11.123 -11.307 0.308
-12.597 -11.870 -0.736
-13.695 -13.474 -0.572
-11.249 -11.314 0.217
-11.824 -12.121 0.366
-11.925 -11.738 -0.032
-12.099 -11.696 -0.340
-9.443 -10.684 1.279
-12.575 -11.895 -0.695
-12.575 -11.894 -0.695
-9.443 -10.684 1.279
-10.902 -12.228 0.352
-11.871 -12.129 0.327
-13.692 -13.492 -0.585
-11.565 -11.600 0.176
-12.575 -11.895 -0.694
-13.692 -13.492 -0.585
-9.649 -10.501 0.882
-12.099 -11.696 -0.340
-11.325 -11.316 0.145
-12.209 -11.774 -0.425
-12.575 -11.895 -0.695
-11.925 -11.738 -0.032
-12.575 -11.895 -0.695
-12.190 -12.886 0.678
-12.209 -11.774 -0.425
-10.939 -12.257 0.321
-11.394 -10.865 -0.528
-12.575 -11.895 -0.694
-11.824 -12.119 0.363
-12.105 -11.677 -0.364
-8.497 -9.816 1.330
-11.073 -11.289 0.340
-13.691 -13.472 -0.569
-8.804 -9.753 0.981
-13.692 -13.492 -0.585
-11.856 -12.097 0.313
-12.421 -11.758 -0.680
-11.871 -12.130 0.327
-12.577 -11.893 -0.699
-9.797 -10.457 0.709
-11.429 -12.091 0.746
-13.692 -13.490 -0.586
-12.539 -11.894 -0.660
-8.924 -10.336 1.397
-11.073 -11.302 0.352
-12.216 -10.912 -1.221
-12.216 -10.912 -1.221
-11.009 -10.932 -0.008
-11.067 -10.934 -0.063
-11.067 -10.934 -0.063
-10.150 -10.355 0.232
-12.248 -10.919 -1.249
-12.248 -10.919 -1.249
-12.248 -10.919 -1.249
-11.009 -10.932 -0.008
-12.248 -10.918 -1.250
-12.248 -10.919 -1.249
-11.067 -10.934 -0.063
-9.984 -9.458 -0.462
-11.066 -10.935 -0.062
-12.248 -10.919 -1.249
-12.248 -10.919 -1.249
-11.066 -10.935 -0.062
-12.248 -10.919 -1.249
-11.009 -10.932 -0.008
-12.248 -10.919 -1.249
-10.647 -10.147 -0.441
-10.647 -10.147 -0.442
-12.248 -10.919 -1.249
-11.067 -10.934 -0.063
-10.914 -10.933 0.091
-10.165 -10.943 0.841
-10.150 -10.355 0.232
-10.647 -10.148 -0.441
-12.248 -10.919 -1.249
-10.149 -10.357 0.234
-11.067 -10.934 -0.063
-10.914 -10.933 0.091
-11.960 -10.965 -0.927
-10.914 -10.933 0.091
-10.311 -10.214 -0.022
-11.006 -10.934 -0.006
-10.914 -10.933 0.091
-12.248 -10.919 -1.249
-10.909 -10.931 0.094
-11.966 -10.966 -0.931
-12.248 -10.919 -1.249
-10.034 -10.364 0.421
-10.399 -10.551 0.119
-10.914 -10.933 0.091
-10.019 -10.098 0.167
-9.888 -9.809 -0.230
-11.316 -9.055 -2.166
-9.985 -9.457 -0.463
-12.213 -10.911 -1.220
-12.246 -10.918 -1.248
-9.166 -9.262 0.164
-10.985 -10.935 0.017
-12.213 -10.911 -1.220
-12.213 -10.911 -1.220
-11.044 -10.938 -0.039
-10.985 -10.935 0.017
-12.246 -10.918 -1.248
-11.963 -10.966 -0.928
-11.044 -10.938 -0.039
-10.329 -10.199 -0.055
-10.049 -10.309 0.323
-12.246 -10.918 -1.248
-10.048 -10.310 0.326
-10.886 -10.936 0.120
-10.886 -10.937 0.120
-10.985 -10.936 0.017
-9.531 -9.771 0.343
-9.593 -9.852 0.132
-10.891 -10.937 0.116
-9.229 -8.741 -0.556
-10.985 -10.936 0.017
-11.044 -10.938 -0.039
-10.985 -10.936 0.016
-10.664 -10.133 -0.472
-12.213 -10.911 -1.220
-11.963 -10.966 -0.928
-11.963 -10.966 -0.928
-9.213 -8.828 -0.275
-11.044 -10.938 -0.039
-9.985 -9.457 -0.463
-9.593 -9.849 0.132
-12.246 -10.918 -1.247
-12.213 -10.911 -1.220
-9.512 -9.687 0.262
-11.957 -10.964 -0.924
-9.395 -9.964 0.587
-10.062 -10.101 0.120
-9.920 -9.362 -0.482
-9.963 -10.793 0.917
-11.044 -10.938 -0.039
-12.213 -10.911 -1.220
-10.886 -10.936 0.120
-11.963 -10.966 -0.928
-11.963 -10.966 -0.928
-11.044 -10.938 -0.039
-12.246 -10.919 -1.247
-10.240 -10.231 0.038
-12.246 -10.918 -1.247
-11.963 -10.966 -0.928
-9.985 -9.457 -0.463
-10.180 -10.957 0.841
-10.890 -10.937 0.117
-12.213 -10.911 -1.220
-10.037 -10.364 0.417
-9.212 -8.823 -0.276
-9.088 -8.827 -0.141
-10.891 -10.937 0.116
-12.213 -10.911 -1.220
-9.212 -8.826 -0.275
-12.213 -10.911 -1.220
-10.664 -10.133 -0.472
-11.966 -10.966 -0.931
-9.985 -9.457 -0.463
-11.957 -10.964 -0.924
-10.037 -10.364 0.417
-12.246 -10.920 -1.246
-7.933 -7.926 0.082
-9.092 -8.831 -0.149
-10.891 -10.937 0.116
-11.957 -10.964 -0.924
-10.891 -10.937 0.116
-11.957 -10.964 -0.924
-9.552 -11.099 1.621
-10.892 -10.937 0.115
-11.321 -9.071 -2.169
-9.212 -8.827 -0.275
-10.241 -10.231 0.036
-9.091 -8.830 -0.153
-12.213 -10.911 -1.220
-9.891 -9.806 -0.236
-11.043 -10.941 -0.039
-10.890 -10.937 0.117
-9.769 -10.158 0.457
-10.049 -10.309 0.323
-10.664 -10.133 -0.472
-9.552 -11.099 1.621
-10.242 -10.230 0.036
-10.326 -10.199 -0.052
-8.518 -8.665 0.211
-10.398 -10.552 0.121
-9.512 -9.685 0.258
-9.127 -8.980 -0.079
-10.240 -10.231 0.037
-11.959 -10.965 -0.925
-11.043 -10.938 -0.038
-9.212 -8.828 -0.275
-9.511 -9.776 0.375
-10.049 -10.309 0.324
-8.984 -8.749 -0.264
-11.041 -10.945 -0.033
-10.049 -10.309 0.324
-10.037 -10.364 0.417
-10.241 -10.230 0.036
-11.044 -10.938 -0.039
-11.033 -10.967 -0.043
-10.049 -10.309 0.324
-11.958 -10.965 -0.925
-10.241 -10.231 0.037
-9.091 -8.835 -0.144
-10.235 -10.588 0.331
-10.037 -10.364 0.417
-10.893 -10.937 0.114
-10.893 -10.937 0.114
-11.953 -10.963 -0.921
-9.947 -9.803 -0.251
-9.963 -10.792 0.916
-9.512 -9.685 0.259
-9.593 -9.851 0.133
-10.217 -10.064 -0.048
-11.969 -10.959 -0.941
-10.084 -10.827 0.827
-10.088 -10.100 0.086