-11.524 -11.321 -0.188
-11.524 -11.321 -0.188
-11.524 -11.321 -0.188
-11.244 -10.665 -0.593
-11.641 -11.327 -0.299
-11.641 -11.327 -0.299
-14.083 -13.694 -0.406
-12.450 -11.469 -1.010
-12.487 -12.064 -0.437
-14.419 -13.704 -0.731
-14.077 -13.699 -0.395
-14.419 -13.704 -0.731
-14.587 -14.164 -0.410
-11.966 -12.093 0.121
-13.146 -12.847 -0.310
-14.102 -13.700 -0.419
-13.147 -12.847 -0.311
-14.074 -13.699 -0.392
-12.245 -13.820 1.578
-13.990 -13.705 -0.304
-14.102 -13.701 -0.418
-11.561 -12.902 1.337
-14.416 -13.705 -0.728
-14.586 -14.165 -0.409
-14.586 -14.165 -0.409
-14.073 -13.700 -0.391
-11.600 -13.071 1.477
-12.245 -13.820 1.578
-14.416 -13.705 -0.728
-11.410 -11.104 -0.311
-14.073 -13.700 -0.391
-13.990 -13.705 -0.304
-8.658 -8.743 0.075
-12.206 -13.748 1.545
-11.090 -10.572 -0.519
-12.536 -12.730 0.210
-13.147 -12.847 -0.311
-14.586 -14.165 -0.409
-11.794 -12.726 0.929
-14.074 -13.699 -0.391
-13.990 -13.705 -0.304
-12.849 -11.491 -1.354
-14.556 -14.176 -0.367
-11.066 -9.909 -1.163
-11.421 -11.093 -0.333
-12.249 -13.819 1.574
-14.075 -13.699 -0.392
-14.075 -13.699 -0.392
-13.991 -13.705 -0.305
-14.418 -13.704 -0.729
-11.991 -12.140 0.141
-14.587 -14.165 -0.410
-11.452 -11.364 -0.084
-14.417 -13.704 -0.728
-11.796 -12.717 0.919
-12.531 -12.737 0.221
-11.452 -11.366 -0.081
-14.073 -13.700 -0.390
-11.463 -11.241 -0.215
-14.074 -13.700 -0.391
-13.147 -12.847 -0.310
-11.410 -11.103 -0.313
-14.074 -13.699 -0.392
-13.990 -13.704 -0.305
-14.416 -13.705 -0.727
-12.458 -11.502 -0.987
-11.122 -11.721 0.592
-11.449 -11.367 -0.078
-11.449 -11.367 -0.078
-8.658 -8.742 0.074
-14.425 -13.704 -0.736
-12.869 -12.778 -0.074
-12.457 -11.503 -0.985
-14.471 -13.707 -0.780
-10.802 -9.948 -0.865
-14.074 -13.700 -0.392
-13.990 -13.705 -0.305
-11.571 -12.992 1.419
-14.240 -14.168 -0.058
-14.074 -13.700 -0.392
-13.063 -12.879 -0.200
-12.525 -12.739 0.228
-11.419 -11.222 -0.192
-11.955 -12.098 0.136
-11.023 -10.956 -0.064
-12.949 -12.868 -0.096
-13.147 -12.847 -0.311
-12.963 -12.864 -0.113
-14.074 -13.699 -0.392
-10.802 -9.945 -0.867
-11.416 -11.099 -0.322
-14.074 -13.699 -0.393
-12.459 -11.502 -0.988
-10.881 -10.852 -0.027
-14.584 -14.165 -0.407
-13.989 -13.705 -0.303
-14.246 -14.168 -0.064
-13.989 -13.705 -0.303
-11.561 -12.898 1.333
-11.967 -12.146 0.171
-13.989 -13.705 -0.303
-12.524 -12.739 0.229
-12.232 -13.750 1.520
-12.367 -12.617 0.246
-11.421 -11.238 -0.176
-13.990 -13.705 -0.304
-13.990 -13.705 -0.304
-11.562 -12.904 1.338
-14.074 -13.700 -0.391
-11.394 -12.729 1.347
-13.990 -13.705 -0.304
-14.587 -14.165 -0.410
-14.417 -13.704 -0.729
-11.453 -11.364 -0.084
-12.531 -12.737 0.221
-13.989 -13.705 -0.303
-13.989 -13.705 -0.303
-14.073 -13.700 -0.390
-12.240 -13.814 1.572
-12.531 -12.737 0.221
-14.417 -13.704 -0.728
-12.335 -12.931 0.571
-10.830 -11.793 0.971
-9.682 -8.648 -1.001
-13.991 -13.705 -0.305
-14.341 -14.189 -0.140
-9.570 -8.599 -0.978
-14.118 -13.697 -0.438
-14.079 -13.697 -0.399
-14.079 -13.697 -0.399
-13.995 -13.702 -0.312
-14.591 -14.163 -0.416
-11.896 -12.728 0.826
-10.882 -10.850 -0.030
-14.245 -14.166 -0.066
-12.275 -12.714 0.439
-14.245 -14.166 -0.065
-14.421 -13.702 -0.734
-10.803 -9.941 -0.872
-12.033 -12.906 0.842
-10.901 -11.357 0.463
-14.252 -14.165 -0.073
-14.078 -13.697 -0.398
-10.859 -11.176 0.321
-12.231 -13.745 1.512
-10.802 -9.944 -0.869
-14.078 -13.697 -0.398
-14.421 -13.702 -0.735
-11.424 -11.234 -0.183
-11.479 -10.606 -0.889
-12.714 -12.873 0.133
-11.349 -11.648 0.304
-13.995 -13.703 -0.311
-14.079 -13.698 -0.399
-11.467 -11.687 0.198
-13.995 -13.703 -0.311
-14.252 -14.166 -0.072
-14.078 -13.697 -0.398
-13.994 -13.703 -0.310
-11.071 -9.908 -1.169
-13.995 -13.702 -0.312
-12.814 -12.878 0.049
-11.070 -9.907 -1.168
-11.452 -11.365 -0.082
-10.801 -9.944 -0.867
-13.994 -13.703 -0.310
-13.994 -13.703 -0.310
-13.994 -13.703 -0.310
-10.801 -9.942 -0.870
-11.451 -11.366 -0.081
-14.117 -13.698 -0.437
-11.421 -11.247 -0.167
-11.902 -12.736 0.828
-11.422 -11.236 -0.180
-7.859 -8.340 0.474
-14.118 -13.698 -0.437
-14.591 -14.163 -0.416
-12.336 -12.930 0.569
-11.070 -9.909 -1.167
-11.424 -11.234 -0.184
-14.430 -13.702 -0.744
-13.995 -13.702 -0.312
-14.246 -14.165 -0.066
-9.378 -8.615 -0.931
-11.480 -10.606 -0.890
-10.000 -10.258 0.271
-12.550 -12.911 0.334
-11.500 -11.338 -0.147
-14.242 -14.162 -0.067
-11.408 -11.222 -0.171
-11.247 -10.670 -0.592
-14.080 -13.697 -0.400
-14.080 -13.697 -0.400
-13.754 -13.051 -0.703
-11.426 -11.237 -0.182
-12.341 -12.929 0.564
-9.656 -8.667 -0.969
-13.996 -13.702 -0.313
-12.861 -11.505 -1.391
-10.880 -10.850 -0.029
-12.525 -12.738 0.227
-11.422 -11.237 -0.179
-14.245 -14.166 -0.065
-12.796 -12.794 0.012
-12.104 -12.693 0.587
-14.421 -13.702 -0.735
-7.859 -8.340 0.475
-9.660 -8.663 -0.973
-12.033 -12.911 0.846
-10.803 -9.943 -0.870
-12.939 -12.726 -0.196
-11.397 -12.730 1.345
-12.912 -12.384 -0.503
-14.129 -13.700 -0.446
-13.995 -13.702 -0.312
-10.854 -11.186 0.333
-11.980 -12.088 0.098
-11.386 -10.922 -0.478
-12.122 -12.683 0.560
-14.594 -14.162 -0.420
-11.598 -13.068 1.476
-12.122 -12.683 0.559
-11.071 -9.908 -1.168
-11.082 -10.569 -0.513
-13.064 -12.878 -0.201
-11.426 -11.235 -0.184
-9.661 -8.662 -0.974
-9.023 -8.221 -0.809
-7.859 -8.340 0.474
-11.903 -12.732 0.823
-12.797 -12.794 0.011
-14.251 -14.166 -0.072
-13.994 -13.703 -0.310
-10.965 -10.614 -0.354
-10.452 -11.393 0.948
-10.876 -10.818 -0.054
-14.245 -14.166 -0.066
-7.859 -8.341 0.474
-11.841 -13.865 2.035
-14.346 -14.190 -0.143
-8.054 -8.779 0.732
-11.883 -12.937 1.024
-13.701 -13.016 -0.688
-13.248 -12.502 -0.731
-13.356 -13.026 -0.339
-13.248 -12.501 -0.732
-10.244 -10.175 -0.087
-9.814 -9.800 -0.007
-13.998 -13.699 -0.318
-11.442 -11.222 -0.213
-10.816 -9.950 -0.877
-14.000 -13.699 -0.320
-14.000 -13.699 -0.320
-14.000 -13.699 -0.320
-14.249 -14.162 -0.073
-12.391 -12.906 0.490
-14.114 -13.695 -0.436
-11.916 -12.704 0.781
-10.958 -10.615 -0.346
-14.000 -13.699 -0.320
-14.000 -13.699 -0.320
-10.904 -10.840 -0.061
-14.083 -13.694 -0.407
-8.958 -9.820 0.850
-9.637 -8.617 -0.990
-11.910 -12.705 0.787
-14.424 -13.704 -0.736
-12.801 -12.792 0.005
-11.425 -11.096 -0.335
-14.290 -14.163 -0.113
-13.994 -13.703 -0.311
-13.994 -13.703 -0.311
-10.718 -11.525 0.798
-14.245 -14.166 -0.065
-14.078 -13.698 -0.397
-11.418 -12.698 1.275
-12.112 -12.002 -0.091
-7.861 -8.340 0.473
-11.432 -11.232 -0.193
-11.602 -13.068 1.472
-7.861 -8.340 0.473
-11.997 -12.084 0.077
-7.862 -8.342 0.474
-11.434 -11.229 -0.198
-14.285 -14.160 -0.111
-11.075 -9.908 -1.173
-11.881 -12.915 1.003
-10.865 -11.334 0.477
-14.080 -13.697 -0.401
-11.417 -11.194 -0.219
-11.432 -11.231 -0.195
-7.861 -8.341 0.473
-12.802 -12.791 0.003
-13.994 -13.703 -0.310
-7.861 -8.341 0.473
-12.016 -12.894 0.846
-13.994 -13.703 -0.310
-14.118 -13.698 -0.437
-14.245 -14.166 -0.065
-14.078 -13.698 -0.398
-11.427 -11.092 -0.340
-10.652 -12.291 1.663
-11.802 -12.051 0.258
-8.053 -8.779 0.733
-11.421 -11.046 -0.381
-14.245 -14.166 -0.066
-14.245 -14.166 -0.066
-12.102 -12.674 0.570
-13.994 -13.703 -0.310
-8.584 -9.263 0.683
-8.053 -8.779 0.733
-14.088 -13.698 -0.407
-13.995 -13.703 -0.311
-11.966 -12.094 0.121
-13.996 -13.703 -0.312
-11.860 -12.921 1.029
-12.020 -12.131 0.103
-11.440 -11.083 -0.363
-10.868 -11.337 0.477
-11.398 -12.724 1.338
-12.802 -12.791 0.003
-11.433 -12.710 1.291
-7.861 -8.341 0.474
-11.073 -9.908 -1.171
-12.104 -12.674 0.568
-11.570 -12.901 1.326
-11.434 -12.709 1.289
-10.866 -11.338 0.480
-13.994 -13.703 -0.311
-8.053 -8.779 0.733
-11.427 -11.076 -0.355
-11.594 -12.756 1.169
-11.429 -11.237 -0.185
-11.965 -12.095 0.123
-12.021 -12.890 0.837
-11.431 -11.232 -0.192
-8.053 -8.779 0.733
-10.878 -10.816 -0.057
-11.415 -12.717 1.315
-14.253 -14.165 -0.074
-8.053 -8.779 0.733
-11.437 -11.085 -0.358
-11.589 -12.900 1.306
-13.996 -13.703 -0.312
-12.354 -10.961 -1.380
-11.432 -11.231 -0.194
-13.995 -13.703 -0.311
-12.017 -12.887 0.838
-11.967 -12.094 0.119
-13.996 -13.703 -0.313
-11.572 -12.907 1.331
-12.020 -12.884 0.831
-13.996 -13.703 -0.313
-13.996 -13.703 -0.313
-11.440 -11.087 -0.360
-10.790 -11.152 0.354
-13.993 -13.703 -0.309
-13.993 -13.703 -0.309
-12.095 -12.670 0.573
-10.416 -11.676 1.251
-11.833 -12.714 0.872
-11.973 -12.144 0.164
-11.415 -11.102 -0.318
-11.415 -11.102 -0.319
-13.993 -13.703 -0.309
-9.656 -8.666 -0.966
-13.993 -13.703 -0.309
-7.861 -8.340 0.473
-14.087 -13.698 -0.406
-11.074 -9.908 -1.172
-11.431 -11.226 -0.199
-11.430 -12.707 1.291
-11.432 -11.089 -0.349
-13.995 -13.703 -0.311
-11.808 -12.050 0.250
-11.432 -11.089 -0.348
-14.089 -13.698 -0.408
-11.432 -11.088 -0.349
-11.074 -9.908 -1.172
-11.390 -10.953 -0.448
-13.995 -13.703 -0.311
-12.869 -12.776 -0.076
-10.900 -11.359 0.467
-13.994 -13.703 -0.310
-14.117 -13.698 -0.436
-11.635 -13.067 1.439
-14.077 -13.698 -0.397
-8.054 -8.779 0.732
-10.856 -11.180 0.328
-13.992 -13.703 -0.308
-10.669 -12.301 1.657
-11.478 -10.607 -0.887
-12.478 -12.703 0.195
-12.291 -11.110 -1.167
-13.305 -13.056 -0.256
-13.933 -13.715 -0.237
-13.278 -13.064 -0.222
-14.044 -13.706 -0.357
-13.994 -13.703 -0.310
-11.069 -9.908 -1.166
-14.289 -14.163 -0.112
-13.994 -13.703 -0.310
-11.402 -11.020 -0.372
-11.956 -12.098 0.135
-13.995 -13.703 -0.311
-9.664 -8.660 -0.980
-11.570 -12.901 1.327
-13.995 -13.703 -0.311
-13.753 -13.050 -0.703
-11.960 -12.096 0.129
-11.960 -12.096 0.129
-11.903 -12.931 0.997
-9.655 -8.664 -0.974
-11.599 -13.068 1.475
-11.426 -11.234 -0.185
-14.080 -13.697 -0.401
-11.414 -11.008 -0.415
-13.996 -13.702 -0.313
-10.087 -10.617 0.503
-11.959 -12.096 0.130
-12.122 -12.687 0.564
-11.406 -12.711 1.318
-11.435 -11.083 -0.358
-11.389 -12.719 1.343
-11.435 -11.085 -0.356
-11.792 -12.050 0.265
-13.997 -13.702 -0.314
-10.660 -12.294 1.659
-11.792 -12.051 0.265
-13.753 -13.050 -0.703
-11.531 -11.156 -0.391
-12.491 -11.503 -1.018
-14.226 -14.169 -0.043
-12.332 -10.972 -1.345
-12.331 -11.035 -1.285
-11.993 -11.310 -0.685
-13.994 -13.702 -0.311
-11.899 -12.938 1.009
-9.657 -8.666 -0.967
-11.426 -12.710 1.280
-14.245 -14.165 -0.066
-14.078 -13.697 -0.399
-13.994 -13.702 -0.311
-11.968 -12.146 0.170
-11.449 -11.365 -0.080
-11.411 -11.104 -0.312
-11.632 -12.960 1.322
-11.848 -12.735 0.879
-13.994 -13.702 -0.311
-8.054 -8.779 0.732
-13.994 -13.702 -0.311
-11.569 -12.896 1.323
-12.286 -12.092 -0.177
-12.333 -11.016 -1.302
-9.811 -9.804 -0.001
-14.289 -14.163 -0.112
-14.289 -14.163 -0.112
-11.383 -11.006 -0.388
-11.404 -11.108 -0.300
-10.415 -11.737 1.313
-11.880 -12.945 1.034
-11.404 -11.110 -0.299
-7.859 -8.337 0.472
-12.096 -12.696 0.598
-7.859 -8.340 0.475
-11.424 -11.235 -0.183
-11.424 -11.093 -0.337
-13.996 -13.702 -0.313
-14.291 -14.162 -0.115
-14.246 -14.165 -0.067
-14.119 -13.697 -0.439
-13.996 -13.702 -0.313
-11.092 -10.572 -0.521
-11.437 -11.083 -0.360
-10.659 -12.938 2.212
-11.454 -11.360 -0.090
-13.642 -13.585 -0.083
-13.997 -13.702 -0.315
-9.850 -9.194 -0.667
-7.860 -8.341 0.474
-12.125 -12.689 0.563
-14.110 -13.697 -0.430
-11.572 -12.903 1.326
-11.793 -12.050 0.264
-11.248 -10.668 -0.596
-11.224 -11.147 -0.075
-14.284 -14.167 -0.104
-11.192 -10.867 -0.332
-14.032 -13.700 -0.350
-11.502 -10.592 -0.926
-10.701 -10.933 0.235
-12.277 -11.169 -1.095
-10.907 -10.840 -0.065
-13.980 -13.697 -0.300
-11.775 -12.051 0.284
-14.126 -13.692 -0.452
-14.003 -13.697 -0.325
-14.355 -14.184 -0.159
-14.004 -13.697 -0.327
-11.439 -11.083 -0.361
-11.079 -9.908 -1.177
-11.976 -12.086 0.103
-10.047 -11.618 1.543
-11.873 -12.705 0.823
-7.863 -8.340 0.470
-9.665 -8.659 -0.981
-8.231 -8.443 0.209
-11.384 -12.670 1.300
-14.005 -13.696 -0.328
-10.453 -11.714 1.251
-10.444 -11.669 1.202
-8.952 -9.822 0.858
-11.835 -12.663 0.841
-14.298 -14.158 -0.127
-11.430 -11.088 -0.348
-14.003 -13.697 -0.326
-10.443 -11.720 1.266
-10.959 -10.615 -0.347
-8.876 -8.460 -0.417
-14.003 -13.697 -0.326
-11.816 -12.044 0.236
-11.421 -11.054 -0.371
-11.431 -11.088 -0.348
-14.127 -13.692 -0.452
-11.920 -12.725 0.797
-11.663 -13.729 2.043
-11.742 -13.847 2.122
-7.861 -8.345 0.478
-11.994 -12.134 0.133
-11.873 -12.722 0.841
-11.427 -11.150 -0.276
-10.281 -11.032 0.749
-7.861 -8.342 0.474
-14.003 -13.697 -0.326
-14.003 -13.697 -0.326
-11.994 -12.134 0.133
-14.003 -13.697 -0.326
-14.097 -13.692 -0.422
-11.428 -11.057 -0.380
-11.815 -12.045 0.237
-10.958 -10.615 -0.347
-11.092 -10.570 -0.523
-11.818 -12.044 0.234
-7.861 -8.341 0.474
-14.005 -13.694 -0.331
-14.006 -13.696 -0.329
-14.300 -14.157 -0.129
-11.801 -12.046 0.252
-12.399 -12.912 0.488
-11.449 -11.074 -0.381
-11.654 -12.878 1.219
-14.006 -13.696 -0.328
-7.861 -8.343 0.475
-11.579 -12.893 1.310
-14.006 -13.696 -0.328
-11.000 -10.603 -0.401
-14.129 -13.692 -0.455
-11.967 -12.090 0.116
-11.911 -12.721 0.802
-14.005 -13.697 -0.328
-10.443 -11.680 1.227
-11.579 -12.639 1.074
-11.439 -11.071 -0.376
-14.129 -13.692 -0.454
-11.343 -12.689 1.358
-11.654 -12.877 1.219
-11.654 -12.877 1.219
-10.992 -10.605 -0.391
-14.005 -13.696 -0.328
-11.952 -12.922 0.939
-14.005 -13.696 -0.328
-12.333 -11.015 -1.303
-11.260 -11.716 0.446
-10.809 -11.793 0.966
-11.969 -12.141 0.165
-10.463 -11.384 0.928
-11.489 -10.603 -0.902
-11.925 -12.201 0.264
-10.904 -11.936 1.047
-12.033 -12.769 0.726
-11.692 -11.480 -0.237
-14.068 -13.704 -0.382
-7.785 -8.340 0.548
-13.984 -13.709 -0.294
-13.944 -13.709 -0.255
-13.944 -13.709 -0.255
-12.343 -10.964 -1.365
-11.710 -12.728 1.010
-8.949 -9.822 0.861
-14.355 -14.184 -0.158
-11.355 -12.684 1.341
-11.997 -12.134 0.129
-8.268 -9.259 0.969
-8.268 -9.259 0.969
-8.436 -8.908 0.472
-8.204 -9.005 0.807
-8.442 -9.556 1.108
-8.483 -9.295 0.789
-8.479 -9.277 0.774
-8.204 -9.005 0.807
-8.483 -9.295 0.789
-8.483 -9.296 0.789
-8.436 -8.908 0.472
-8.204 -9.005 0.807
-8.483 -9.295 0.789
-8.442 -9.557 1.109
-8.436 -8.908 0.472
-8.483 -9.295 0.789
-11.435 -11.233 -0.195
-8.435 -8.908 0.473
-8.413 -9.005 0.601
-8.261 -9.228 0.945
-8.441 -9.557 1.110
-11.489 -10.603 -0.902
-8.053 -10.178 2.112
-8.349 -9.043 0.696
-11.987 -11.438 -0.573
-8.172 -9.276 1.082
-10.809 -9.943 -0.877
-8.444 -9.555 1.106
-11.075 -9.909 -1.172
-12.577 -12.879 0.278
-11.987 -11.438 -0.572
-11.987 -11.438 -0.572
-11.435 -11.225 -0.203
-10.865 -10.806 -0.054
-8.481 -9.297 0.792
-13.368 -13.036 -0.342
-8.697 -8.567 -0.122
-12.450 -12.867 0.393
-11.987 -11.438 -0.572
-8.413 -9.008 0.603
-8.696 -8.567 -0.122
-8.267 -9.261 0.972
-8.482 -9.296 0.790
-8.482 -9.296 0.790
-13.370 -13.030 -0.348
-8.430 -9.568 1.133
-8.364 -9.319 0.932
-11.987 -11.438 -0.572
-8.586 -8.810 0.212
-11.094 -11.312 0.221
-13.372 -13.037 -0.344
-13.370 -13.030 -0.348
-11.694 -11.479 -0.239
-11.987 -11.438 -0.572
-13.372 -13.037 -0.344
-8.361 -9.316 0.930
-11.987 -11.438 -0.572
-8.384 -9.314 0.906
-11.437 -11.225 -0.205
-8.442 -9.559 1.111
-10.875 -11.259 0.393
-8.446 -9.556 1.105
-8.367 -8.524 0.139
-8.436 -8.908 0.472
-8.102 -8.458 0.352
-9.685 -8.647 -1.004
-11.093 -10.570 -0.524
-10.811 -9.939 -0.882
-11.437 -11.225 -0.205
-8.266 -9.271 0.982
-12.894 -12.838 -0.072
-11.075 -9.909 -1.172
-12.606 -12.846 0.216
-12.576 -12.878 0.278
-10.784 -10.131 -0.663
-11.092 -10.571 -0.523
-10.810 -9.943 -0.878
-13.371 -13.029 -0.350
-13.247 -13.028 -0.228
-12.606 -12.846 0.217
-11.536 -12.717 1.189
-10.784 -10.131 -0.663
-8.696 -8.567 -0.121
-11.988 -11.438 -0.574
-11.075 -9.909 -1.172
-8.811 -8.567 -0.236
-12.341 -10.978 -1.348
-8.453 -8.652 0.187
-11.436 -11.225 -0.204
-11.436 -11.225 -0.204
-8.695 -8.568 -0.119
-11.385 -11.262 -0.120
-11.436 -11.225 -0.204
-12.282 -12.900 0.594
-12.517 -12.580 0.052
-11.075 -9.909 -1.172
-10.688 -11.413 0.725
-11.436 -11.224 -0.205
-10.781 -10.131 -0.659
-7.986 -8.352 0.376
-8.811 -8.567 -0.236
-10.784 -10.131 -0.662
-13.371 -13.029 -0.350
-8.431 -8.911 0.480
-8.238 -9.008 0.777
-10.835 -10.157 -0.686
-12.606 -12.846 0.216
-8.436 -8.908 0.472
-8.227 -8.443 0.213
-12.381 -11.477 -0.936
-11.075 -9.909 -1.172
-11.386 -11.260 -0.123
-11.092 -10.571 -0.523
-11.075 -9.909 -1.172
-11.075 -9.909 -1.172
-11.075 -9.909 -1.172
-11.075 -9.909 -1.172
-11.075 -9.909 -1.172
-8.436 -8.907 0.471
-11.436 -11.224 -0.205
-8.482 -9.296 0.790
-10.811 -9.944 -0.878
-8.697 -8.567 -0.122
-8.932 -9.824 0.880
-10.786 -10.130 -0.665
-10.811 -9.939 -0.882
-11.431 -11.087 -0.349
-12.183 -12.682 0.500
-11.437 -11.224 -0.207
-13.369 -13.035 -0.343
-8.581 -9.283 0.688
-11.438 -11.223 -0.208
-10.756 -11.336 0.586
-8.331 -9.351 0.998
-8.543 -9.117 0.575
-11.567 -11.312 -0.240
-12.602 -12.872 0.241
-11.659 -11.386 -0.273
-11.520 -11.326 -0.179
-8.407 -8.894 0.487
-10.933 -11.483 0.543
-11.540 -11.193 -0.365
-11.669 -11.454 -0.238
-8.596 -9.281 0.672
-8.272 -9.305 1.003
-8.230 -8.440 0.206
-10.818 -9.953 -0.876
-10.723 -10.613 -0.111
-11.093 -10.571 -0.523
-8.351 -9.059 0.707
-7.983 -8.353 0.381
-8.699 -8.567 -0.124
-11.076 -9.909 -1.173
-11.779 -12.051 0.279
-8.337 -9.171 0.833
-11.444 -11.224 -0.214
-8.496 -9.295 0.775
-11.940 -12.909 0.938
-8.496 -9.295 0.775
-8.230 -8.443 0.211
-11.111 -10.980 -0.144
-10.793 -10.131 -0.672
-8.498 -9.294 0.772
-8.498 -9.294 0.772
-11.444 -11.222 -0.216
-11.443 -11.081 -0.368
-7.235 -9.316 2.094
-11.968 -12.870 0.870
-11.942 -12.909 0.936
-11.785 -12.695 0.903
-10.817 -9.958 -0.871
-8.342 -9.355 0.995
-6.713 -8.018 1.287
-7.235 -9.316 2.093
-11.104 -10.985 -0.131
-8.435 -8.907 0.472
-8.495 -9.299 0.778
-8.498 -9.294 0.773
-11.963 -11.413 -0.573
-11.442 -11.223 -0.212
-10.817 -9.955 -0.873
-10.331 -11.355 1.033
-11.011 -10.116 -0.903
-9.659 -8.664 -0.971
-8.964 -9.821 0.845
-12.283 -10.898 -1.368
-11.092 -10.571 -0.523
-8.106 -8.457 0.348
-7.863 -10.117 2.256
-6.656 -8.570 1.902
-11.300 -11.322 0.026
-11.076 -9.909 -1.172
-11.441 -11.079 -0.368
-7.940 -8.354 0.424
-10.844 -10.158 -0.695
-11.294 -11.326 0.036
-8.229 -8.443 0.212
-12.247 -12.646 0.394
-12.491 -12.627 0.073
-7.786 -8.766 0.992
-8.496 -9.295 0.776
-9.372 -8.652 -0.696
-10.847 -10.157 -0.699
-8.498 -9.294 0.773
-8.216 -9.003 0.794
-11.102 -10.983 -0.132
-11.870 -12.700 0.821
-11.102 -10.985 -0.129
-8.371 -9.027 0.657
-8.498 -9.293 0.771
-10.847 -10.157 -0.699
-8.814 -8.566 -0.240
-11.969 -12.862 0.862
-8.199 -9.347 1.127
-8.435 -8.907 0.472
-10.865 -11.543 0.673
-11.077 -9.909 -1.174
-10.750 -11.498 0.739
-7.381 -8.104 0.728
-12.194 -12.667 0.473
-7.308 -8.272 0.979
-12.593 -12.830 0.212
-8.276 -9.257 0.959
-11.775 -12.691 0.909
-10.989 -10.833 -0.150
-12.082 -11.035 -1.032
-8.434 -9.306 0.847
-8.214 -9.269 1.032
-10.302 -12.163 1.873
-7.303 -8.143 0.845
-8.434 -9.306 0.847
-8.434 -9.306 0.847
-8.815 -8.567 -0.240
-11.446 -11.076 -0.376
-8.496 -9.295 0.776
-12.638 -11.469 -1.166
-8.960 -9.821 0.850
-13.962 -13.704 -0.277
-11.246 -11.406 0.163
-12.593 -12.835 0.217
-9.893 -10.171 0.249
-11.899 -12.362 0.483
-8.499 -9.296 0.774
-8.499 -9.294 0.771
-11.093 -10.992 -0.112
-11.800 -12.904 1.072
-10.842 -9.879 -0.969
-12.595 -12.834 0.215
-8.202 -9.358 1.136
-13.997 -13.698 -0.318
-8.499 -9.294 0.771
-8.105 -8.457 0.349
-13.997 -13.698 -0.318
-8.499 -9.294 0.771
-11.988 -12.656 0.662
-6.760 -8.590 1.853
-11.937 -12.913 0.945
-7.236 -9.311 2.087
-11.823 -12.392 0.569
-5.173 -5.083 -0.082
-10.433 -11.364 0.939
-11.994 -12.646 0.651
-11.057 -10.605 -0.471
-12.368 -11.454 -0.945
-12.569 -12.918 0.303
-11.993 -12.639 0.644
-8.499 -9.277 0.756
-8.498 -9.285 0.759
-8.105 -8.457 0.349
-11.930 -12.908 0.946
-11.225 -12.546 1.328
-11.989 -12.600 0.610
-8.699 -8.567 -0.124
-8.106 -8.458 0.349
-8.534 -9.524 0.983
-11.445 -11.221 -0.217
-12.190 -12.675 0.487
-6.657 -8.594 1.924
-8.334 -9.353 0.999
-8.496 -9.295 0.774
-8.495 -9.297 0.778
-6.712 -8.018 1.288
-6.660 -8.031 1.352
-6.655 -8.619 1.952
-11.989 -12.625 0.629
-11.941 -12.905 0.932
-8.496 -9.295 0.775
-8.496 -9.296 0.777
-11.444 -11.080 -0.370
-8.496 -9.297 0.778
-10.419 -11.361 0.949
-11.938 -12.904 0.935
-11.089 -10.980 -0.122
-6.616 -8.040 1.402
-6.705 -8.865 2.166
-6.660 -8.031 1.351
-11.444 -11.080 -0.370
-8.496 -9.295 0.775
-10.627 -12.050 1.443
-11.968 -12.863 0.864
-11.448 -11.641 0.080
-10.427 -11.354 0.935
-9.661 -8.662 -0.975
-11.060 -11.019 -0.048
-6.712 -8.018 1.288
-8.494 -9.296 0.778
-6.756 -8.591 1.857
-7.387 -9.328 1.954
-8.348 -9.046 0.698
-6.703 -8.866 2.168
-8.345 -9.349 0.984
-10.980 -10.609 -0.376
-7.234 -9.315 2.094
-11.748 -12.046 0.291
-12.197 -12.666 0.469
-11.447 -11.077 -0.375
-6.736 -8.005 1.254
-8.272 -9.260 0.962
-10.711 -11.963 1.267
-12.011 -12.659 0.647
-8.009 -10.147 2.115
-8.495 -9.295 0.776
-8.107 -8.457 0.347
-6.712 -8.019 1.289
-6.138 -8.449 2.306
-8.495 -9.295 0.776
-7.234 -9.317 2.095
-6.704 -8.866 2.167
-8.495 -9.290 0.772
-13.999 -13.698 -0.321
-8.272 -9.258 0.964
-12.012 -12.639 0.625
-6.733 -8.459 1.735
-11.932 -12.459 0.522
-8.400 -9.600 1.193
-8.495 -9.295 0.776
-6.712 -8.019 1.289
-8.525 -8.956 0.420
-10.819 -9.954 -0.876
-8.274 -9.263 0.966
-8.803 -8.522 -0.284
-8.435 -8.907 0.473
-12.004 -12.631 0.626
-13.998 -13.698 -0.319
-8.497 -9.294 0.773
-8.496 -9.294 0.774
-10.753 -11.498 0.736
-8.495 -9.289 0.771
-11.297 -11.324 0.031
-11.297 -11.324 0.032
-8.116 -9.320 1.185
-6.657 -8.582 1.912
-10.752 -11.493 0.730
-12.010 -12.634 0.622
-7.308 -8.272 0.979
-8.214 -9.004 0.796
-8.496 -9.294 0.775
-8.595 -9.282 0.673
-6.627 -8.556 1.952
-7.381 -8.104 0.729
-11.115 -10.977 -0.150
-11.967 -12.863 0.864
-10.743 -10.609 -0.136
-8.534 -9.524 0.983
-8.392 -9.024 0.633
-8.214 -9.003 0.795
-8.337 -9.352 0.994
-8.494 -9.284 0.768
-12.081 -12.502 0.411
-8.495 -9.295 0.776
-12.895 -12.826 -0.085
-10.812 -10.167 -0.653
-11.802 -12.901 1.068
-11.802 -12.901 1.068
-11.295 -11.326 0.035
-8.680 -9.145 0.463
-7.759 -9.394 1.653
-8.323 -9.102 0.779
-8.543 -9.117 0.575
-7.254 -9.355 2.115
-12.618 -12.709 0.051
-12.955 -12.855 -0.118
-12.616 -12.883 0.241
-11.065 -10.996 -0.081
-7.640 -8.166 0.533
-7.902 -10.132 2.229
-11.522 -11.325 -0.182
-8.034 -10.144 2.101
-12.693 -13.198 0.489
-8.541 -9.119 0.579
-6.525 -8.653 2.114
-11.658 -11.387 -0.271
-13.363 -13.019 -0.352
-8.167 -9.008 0.849
-11.771 -12.777 0.983
-6.147 -8.449 2.297
-11.958 -11.415 -0.565
-12.369 -11.454 -0.946
-8.396 -9.309 0.889
-10.763 -11.554 0.791
-12.492 -12.869 0.350
-11.395 -11.024 -0.386
-7.506 -8.886 1.411
-7.507 -8.859 1.385
-7.043 -8.104 1.040
-8.541 -9.119 0.579
-10.699 -10.933 0.237
-12.643 -12.762 0.098
-7.989 -9.222 1.228
-6.931 -8.130 1.175
-7.043 -8.104 1.040
-11.500 -10.597 -0.919
-7.748 -9.409 1.680
-7.835 -8.194 0.365
-8.009 -10.202 2.196
-12.486 -12.869 0.356
-12.486 -12.865 0.352
-8.101 -10.186 2.057
-6.931 -8.130 1.174
-7.506 -8.875 1.400
-7.043 -8.103 1.039
-8.843 -9.223 0.387
-9.565 -10.384 0.817
-12.614 -12.882 0.241
-6.931 -8.130 1.174
-8.541 -9.118 0.578
-7.598 -9.252 1.651
-6.522 -8.746 2.211
-12.324 -12.657 0.328
-8.541 -9.118 0.578
-8.843 -9.223 0.386
-8.692 -9.348 0.596
-8.041 -10.157 2.107
-6.931 -8.130 1.174
-7.991 -9.216 1.221
-7.747 -9.391 1.662
-10.698 -10.934 0.239
-12.299 -12.419 0.132
-12.655 -12.831 0.151
-8.050 -9.981 1.923
-12.173 -12.215 0.061
-8.064 -10.143 2.057
-6.931 -8.130 1.174
-11.533 -10.605 -0.943
-8.541 -9.119 0.579
-11.657 -11.390 -0.267
-10.709 -11.473 0.756
-8.541 -9.120 0.579
-12.502 -12.474 -0.050
-11.483 -10.604 -0.894
-13.359 -13.022 -0.346
-12.894 -12.827 -0.082
-5.953 -8.451 2.516
-11.097 -10.997 -0.112
-8.217 -9.002 0.793
-8.341 -9.350 0.988
-8.499 -9.294 0.771
-11.970 -12.874 0.873
-6.759 -8.590 1.853
-8.499 -9.294 0.771
-13.997 -13.698 -0.318
-14.250 -14.162 -0.074
-11.996 -12.638 0.640
-11.997 -12.640 0.641
-11.264 -11.342 0.077
-8.499 -9.294 0.771
-11.994 -12.651 0.655
-8.499 -9.294 0.771
-11.994 -12.605 0.607
-8.499 -9.294 0.771
-8.445 -9.554 1.103
-11.995 -12.650 0.654
-8.499 -9.293 0.770
-6.713 -8.017 1.286
-8.499 -9.294 0.771
-8.537 -9.523 0.979
-10.659 -11.388 0.726
-8.499 -9.294 0.771
-7.236 -9.315 2.093
-11.329 -12.692 1.374
-9.406 -9.671 0.277
-10.385 -10.494 0.107
-9.461 -9.693 0.243
-10.256 -10.516 0.237
-9.412 -9.663 0.263
-9.461 -9.693 0.243
-10.207 -10.924 0.729
-9.791 -9.441 -0.381
-9.791 -9.441 -0.381
-10.231 -10.949 0.722
-9.454 -9.695 0.252
-10.388 -10.529 0.122
-10.231 -10.950 0.722
-10.248 -10.522 0.252
-10.229 -10.939 0.712
-10.248 -10.520 0.249
-10.229 -10.939 0.712
-10.248 -10.521 0.249
-10.229 -10.939 0.712
-9.792 -9.441 -0.381
-10.229 -10.939 0.712
-10.322 -10.508 0.198
-10.310 -10.955 0.647
-10.229 -10.939 0.712
-10.229 -10.939 0.712
-10.231 -10.949 0.721
-10.229 -10.939 0.712
-7.878 -8.090 0.218
-8.972 -8.968 0.000
-10.309 -10.962 0.655
-10.195 -10.650 0.472
-9.405 -9.668 0.275
-10.176 -10.522 0.335
-10.232 -10.947 0.719
-10.248 -10.521 0.251
-10.248 -10.522 0.252
-8.972 -8.969 0.001
-10.322 -10.505 0.196
-9.405 -9.666 0.272
-9.405 -9.666 0.273
-9.260 -9.806 0.555
-8.497 -8.495 0.000
-10.229 -10.938 0.711
-10.248 -10.521 0.249
-10.299 -10.953 0.655
-10.199 -10.712 0.528
-9.454 -9.707 0.266
-9.474 -9.728 0.265
-9.454 -9.692 0.249
-10.272 -10.951 0.692
-10.187 -10.522 0.325
-10.187 -10.977 0.801
-10.187 -10.977 0.801
-10.248 -10.520 0.249
-10.232 -10.128 -0.147
-10.194 -10.649 0.472
-10.248 -10.522 0.251
-8.972 -8.968 0.001
-10.231 -10.949 0.721
-10.229 -10.939 0.712
-7.878 -8.090 0.218
-9.419 -9.703 0.295
-9.455 -9.692 0.249
-10.195 -10.651 0.473
-10.309 -10.963 0.657
-9.389 -9.734 0.349
-10.308 -10.963 0.657
-9.474 -9.730 0.266
-9.834 -9.888 0.011
-10.248 -10.521 0.250
-8.972 -8.969 0.001
-10.195 -10.651 0.473
-10.187 -10.521 0.324
-10.310 -10.961 0.653
-10.248 -10.521 0.250
-10.248 -10.521 0.250
-7.878 -8.090 0.218
-9.928 -9.893 -0.076
-10.187 -10.978 0.802
-10.229 -10.939 0.712
-10.248 -10.520 0.247
-10.232 -10.111 -0.164
-10.229 -10.938 0.712
-10.195 -10.651 0.474
-10.187 -10.977 0.802
-10.229 -10.939 0.713
-10.188 -10.522 0.325
-9.405 -9.666 0.272
-10.187 -10.978 0.801
-10.273 -10.947 0.687
-10.249 -10.520 0.248
-10.124 -10.966 0.853
-10.195 -10.651 0.473
-10.175 -10.521 0.336
-10.229 -10.940 0.713
-10.187 -10.521 0.325
-10.299 -10.953 0.655
-10.194 -10.643 0.465
-9.791 -9.441 -0.381
-10.287 -10.669 0.399
-10.299 -10.955 0.658
-9.586 -10.034 0.433
-8.496 -8.495 0.001
-10.187 -10.521 0.326
-10.136 -10.512 0.377
-10.248 -10.521 0.250
-10.232 -10.947 0.718
-10.232 -10.947 0.718
-8.972 -8.968 0.000
-10.187 -10.977 0.801
-10.187 -10.522 0.325
-10.272 -10.955 0.696
-10.309 -10.963 0.656
-8.972 -8.968 0.000
-10.249 -10.522 0.251
-10.176 -10.521 0.335
-10.311 -10.960 0.652
-9.406 -9.666 0.271
-9.079 -9.485 0.410
-10.322 -10.507 0.199
-10.230 -10.939 0.711
-7.531 -8.058 0.531
-10.176 -10.521 0.335
-9.437 -9.773 0.342
-10.231 -10.949 0.720
-10.231 -10.949 0.720
-10.231 -10.949 0.720
-10.299 -10.955 0.658
-10.123 -10.970 0.858
-10.248 -10.521 0.249
-10.232 -10.947 0.717
-10.300 -10.953 0.655
-10.229 -10.940 0.713
-10.310 -10.955 0.647
-7.878 -8.090 0.218
-10.287 -10.669 0.399
-10.287 -10.669 0.399
-10.229 -10.939 0.712
-10.251 -10.513 0.239
-10.251 -10.514 0.240
-10.202 -10.730 0.544
-10.179 -10.513 0.324
-10.251 -10.514 0.239
-10.251 -10.513 0.237
-10.312 -10.956 0.646
-10.196 -10.652 0.473
-9.472 -9.727 0.266
-10.384 -10.529 0.126
-10.231 -10.939 0.710
-8.480 -8.494 0.016
-10.244 -10.520 0.252
-10.171 -10.521 0.339
-10.244 -10.520 0.251
-10.288 -10.670 0.399
-10.171 -10.521 0.340
-9.472 -9.727 0.266
-10.239 -10.632 0.411
-10.196 -10.652 0.473
-10.171 -10.522 0.340
-10.243 -10.521 0.254
-10.243 -10.522 0.256
-10.188 -10.978 0.800
-10.231 -10.939 0.710
-10.182 -10.521 0.330
-10.240 -10.630 0.408
-10.110 -10.686 0.591
-10.188 -10.977 0.800
-10.239 -10.633 0.411
-10.232 -10.950 0.721
-10.312 -10.955 0.645
-8.451 -8.495 0.046
-10.233 -10.948 0.718
-10.231 -10.939 0.711
-8.977 -8.968 -0.005
-10.188 -10.978 0.800
-9.405 -9.668 0.275
-7.445 -8.020 0.583
-10.231 -10.939 0.711
-10.274 -10.954 0.693
-9.598 -9.474 -0.149
-10.190 -10.977 0.797
-10.183 -10.522 0.329
-10.172 -10.521 0.339
-7.530 -8.077 0.550
-10.243 -10.523 0.258
-10.234 -10.947 0.716
-10.234 -10.947 0.716
-10.288 -10.670 0.399
-10.136 -10.500 0.368
-10.243 -10.521 0.253
-9.472 -9.727 0.265
-10.273 -10.950 0.690
-10.299 -10.956 0.658
-10.171 -10.521 0.338
-10.320 -10.525 0.197
-10.231 -10.939 0.711
-10.171 -10.520 0.340
-10.288 -10.670 0.399
-9.800 -9.442 -0.388
-10.196 -10.652 0.473
-10.172 -10.910 0.752
-10.188 -10.937 0.752
-10.121 -10.889 0.781
-10.231 -10.939 0.711
-10.200 -10.718 0.533
-10.196 -10.778 0.596
-10.233 -10.949 0.718
-10.189 -10.977 0.799
-10.171 -10.943 0.784
-8.480 -8.494 0.016
-10.231 -10.939 0.710
-10.231 -10.939 0.711
-10.312 -10.955 0.645
-10.171 -10.521 0.340
-10.171 -10.521 0.339
-9.472 -9.726 0.265
-10.288 -10.670 0.399
-10.243 -10.521 0.253
-10.231 -10.939 0.711
-10.288 -10.665 0.393
-10.227 -10.097 -0.172
-8.632 -9.193 0.575
-10.288 -10.670 0.398
-10.232 -10.949 0.720
-10.274 -10.952 0.691
-10.131 -10.511 0.382
-10.244 -10.521 0.254
-10.189 -10.978 0.800
-10.171 -10.521 0.339
-7.878 -8.090 0.218
-10.196 -10.652 0.473
-10.171 -10.521 0.341
-10.171 -10.522 0.340
-10.243 -10.521 0.254
-10.243 -10.521 0.254
-10.137 -10.082 -0.097
-10.233 -10.950 0.720
-10.231 -10.937 0.709
-10.231 -10.939 0.710
-10.244 -10.520 0.252
-10.011 -9.900 -0.152
-8.498 -8.496 -0.000
-10.231 -10.939 0.711
-10.288 -10.670 0.398
-10.232 -10.949 0.720
-10.232 -10.949 0.720
-10.243 -10.521 0.254
-7.531 -8.056 0.530
-10.233 -10.947 0.717
-10.170 -10.522 0.341
-8.497 -8.496 0.001
-10.312 -10.955 0.645
-8.480 -8.494 0.016
-7.878 -8.090 0.218
-10.195 -10.650 0.473
-10.321 -10.512 0.204
-10.170 -10.922 0.765
-8.971 -8.969 0.001
-10.176 -10.521 0.335
-10.272 -10.939 0.680
-10.231 -10.949 0.721
-10.176 -10.521 0.335
-9.406 -9.666 0.272
-10.177 -10.521 0.334
-10.233 -10.109 -0.166
-10.177 -10.521 0.334
-10.177 -10.521 0.334
-9.406 -9.665 0.271
-10.177 -10.521 0.334
-10.233 -10.946 0.716
-10.195 -10.651 0.473
-10.231 -10.949 0.722
-10.231 -10.949 0.722
-10.176 -10.522 0.336
-10.310 -10.955 0.647
-10.229 -10.939 0.712
-10.188 -10.977 0.799
-8.451 -8.495 0.045
-9.405 -9.668 0.274
-10.195 -10.651 0.473
-8.518 -9.268 0.754
-8.397 -9.273 0.879
-7.978 -8.789 0.821
-8.861 -9.847 0.977
-8.395 -9.273 0.882
-9.373 -10.224 0.871
-7.766 -8.406 0.634
-7.978 -8.789 0.821
-8.820 -9.847 1.017
-9.354 -10.202 0.869
-10.829 -10.768 -0.084
-8.093 -8.943 0.853
-8.321 -8.671 0.325
-7.905 -8.807 0.912
-7.562 -8.878 1.322
-10.181 -10.684 0.481
-7.341 -7.347 0.020
-8.820 -9.847 1.017
-9.354 -10.199 0.866
-7.995 -8.785 0.799
-8.870 -9.845 0.966
-7.995 -8.785 0.799