-9.694 -8.655 -1.028
-9.694 -8.655 -1.028
-9.453 -8.659 -0.783
-9.453 -8.659 -0.783
-9.453 -8.659 -0.783
-8.584 -8.366 -0.207
-8.584 -8.366 -0.207
-9.453 -8.659 -0.783
-9.453 -8.659 -0.783
-9.453 -8.659 -0.783
-8.584 -8.366 -0.207
-9.692 -8.656 -1.025
-9.453 -8.659 -0.783
-8.584 -8.366 -0.207
-9.692 -8.656 -1.025
-9.453 -8.659 -0.783
-8.584 -8.366 -0.207
-9.024 -8.688 -0.325
-8.692 -8.706 0.025
-9.024 -8.688 -0.325
-9.692 -8.656 -1.025
-9.453 -8.659 -0.783
-9.453 -8.659 -0.783
-9.453 -8.659 -0.783
-9.453 -8.659 -0.783
-9.692 -8.656 -1.025
-9.692 -8.656 -1.025
-8.584 -8.366 -0.207
-8.691 -8.707 0.027
-8.691 -8.707 0.027
-8.691 -8.707 0.027
-8.584 -8.366 -0.207
-8.584 -8.366 -0.207
-9.692 -8.656 -1.025
-9.453 -8.659 -0.783
-8.584 -8.366 -0.207
-8.691 -8.707 0.027
-9.452 -8.659 -0.782
-9.452 -8.659 -0.782
-9.452 -8.659 -0.782
-7.784 -7.783 0.010
-9.692 -8.656 -1.025
-9.692 -8.656 -1.025
-9.725 -8.654 -1.059
-9.101 -8.189 -0.903
-8.691 -8.707 0.027
-8.583 -8.366 -0.205
-8.583 -8.366 -0.205
-8.691 -8.707 0.027
-9.688 -8.657 -1.019
-9.688 -8.657 -1.019
-9.688 -8.657 -1.019
-8.583 -8.367 -0.205
-8.583 -8.367 -0.205
-8.583 -8.367 -0.205
-8.583 -8.367 -0.205
-8.690 -8.707 0.028
-8.583 -8.367 -0.205
-8.690 -8.707 0.028
-9.688 -8.657 -1.019
-9.101 -8.189 -0.903
-8.681 -8.493 -0.179
-8.691 -8.707 0.028
-9.448 -8.661 -0.775
-9.442 -8.174 -1.261
-9.442 -8.174 -1.261
-9.442 -8.174 -1.261
-9.443 -8.665 -0.767
-9.077 -8.199 -0.870
-9.709 -8.658 -1.040
-9.709 -8.658 -1.040
-9.446 -8.663 -0.772
-9.077 -8.199 -0.870
-9.709 -8.658 -1.040
-10.415 -7.479 -2.933
-10.415 -7.479 -2.933
-9.797 -8.646 -1.139
-9.129 -8.158 -0.964
-9.829 -8.644 -1.174
-9.491 -8.656 -0.824
-8.658 -8.714 0.066
-11.304 -4.459 -6.877
-9.731 -8.653 -1.067
-9.129 -8.158 -0.964
-9.486 -8.658 -0.817
-11.303 -4.460 -6.876
-9.731 -8.653 -1.067
-9.796 -8.647 -1.139
-8.658 -8.714 0.066
-9.490 -8.656 -0.823
-9.490 -8.656 -0.823
-9.034 -8.687 -0.336
-11.306 -4.458 -6.880
-8.818 -8.324 -0.483
-9.574 -8.653 -0.910
-9.829 -8.644 -1.174
-9.829 -8.644 -1.174
-9.491 -8.656 -0.824
-9.491 -8.656 -0.824
-9.829 -8.644 -1.174
-9.829 -8.644 -1.174
-9.829 -8.644 -1.174
-8.659 -8.714 0.066
-9.480 -8.657 -0.812
-8.658 -8.714 0.066
-9.129 -8.158 -0.964
-9.129 -8.158 -0.964
-9.829 -8.644 -1.174
-8.659 -8.714 0.066
-8.417 -8.735 0.329
-9.491 -8.656 -0.824
-9.491 -8.656 -0.824
-9.491 -8.656 -0.824
-9.491 -8.656 -0.824
-9.129 -8.158 -0.964
-11.306 -4.459 -6.879
-9.796 -8.647 -1.139
-9.490 -8.656 -0.823
-9.490 -8.656 -0.823
-8.658 -8.714 0.067
-9.490 -8.656 -0.823
-9.490 -8.656 -0.823
-8.658 -8.714 0.066
-11.303 -4.460 -6.876
-9.731 -8.653 -1.067
-11.303 -4.460 -6.876
-9.731 -8.653 -1.067
-9.829 -8.644 -1.174
-9.829 -8.644 -1.174
-9.577 -8.652 -0.913
-8.658 -8.714 0.066
-8.658 -8.714 0.066
-8.658 -8.714 0.066
-8.658 -8.714 0.066
-8.658 -8.714 0.066
-9.577 -8.652 -0.913
-11.391 -6.653 -4.743
-11.329 -4.488 -6.871
-9.731 -8.653 -1.067
-9.576 -8.652 -0.913
-9.576 -8.652 -0.913
-9.576 -8.652 -0.913
-9.490 -8.656 -0.823
-9.490 -8.656 -0.823
-9.013 -8.691 -0.311
-9.775 -8.634 -1.130
-8.658 -8.714 0.066
-8.658 -8.714 0.066
-9.491 -8.656 -0.824
-8.658 -8.714 0.066
-11.306 -4.459 -6.880
-9.830 -8.644 -1.175
-9.830 -8.644 -1.175
-9.577 -8.652 -0.914
-11.305 -4.459 -6.879
-11.305 -4.459 -6.879
-9.317 -8.719 -0.587
-11.305 -4.459 -6.879
-9.830 -8.644 -1.175
-11.324 -4.490 -6.865
-11.305 -4.459 -6.879
-9.988 -8.625 -1.352
-9.491 -8.656 -0.825
-9.491 -8.656 -0.825
-11.306 -4.459 -6.880
-9.830 -8.644 -1.175
-9.830 -8.644 -1.175
-11.306 -4.459 -6.879
-10.416 -7.479 -2.934
-10.416 -7.479 -2.934
-9.830 -8.644 -1.175
-9.830 -8.644 -1.175
-9.491 -8.656 -0.824
-9.830 -8.644 -1.175
-9.830 -8.644 -1.175
-9.491 -8.656 -0.824
-8.658 -8.714 0.066
-9.830 -8.644 -1.175
-9.830 -8.644 -1.175
-8.659 -8.714 0.066
-9.830 -8.644 -1.175
-11.306 -4.459 -6.879
-11.306 -4.459 -6.879
-11.306 -4.459 -6.879
-9.797 -8.646 -1.140
-9.577 -8.652 -0.914
-9.130 -8.158 -0.964
-9.130 -8.158 -0.964
-9.830 -8.644 -1.175
-9.830 -8.644 -1.175
-9.830 -8.644 -1.175
-9.830 -8.644 -1.175
-9.830 -8.644 -1.175
-9.491 -8.656 -0.824
-11.305 -4.459 -6.879
-9.732 -8.653 -1.068
-9.013 -8.690 -0.312
-9.130 -8.158 -0.964
-8.361 -8.679 0.329
-11.307 -4.458 -6.881
-11.307 -4.458 -6.881
-9.830 -8.644 -1.175
-9.830 -8.644 -1.175
-9.830 -8.644 -1.175
-9.830 -8.644 -1.175
-9.830 -8.644 -1.175
-9.830 -8.644 -1.175
-8.730 -8.620 -0.100
-9.830 -8.644 -1.175
-9.830 -8.644 -1.175
-9.830 -8.644 -1.175
-9.830 -8.644 -1.175
-11.306 -4.459 -6.879
-9.732 -8.653 -1.068
-8.659 -8.714 0.066
-9.830 -8.644 -1.175
-9.491 -8.656 -0.824
-9.491 -8.656 -0.824
-9.491 -8.656 -0.824
-8.658 -8.714 0.066
-9.830 -8.644 -1.175
-8.659 -8.714 0.066
-9.491 -8.656 -0.824
-9.830 -8.644 -1.175
-9.830 -8.644 -1.175
-9.830 -8.644 -1.175
-9.577 -8.652 -0.914
-9.776 -8.633 -1.131
-9.830 -8.644 -1.175
-8.366 -8.679 0.324
-11.305 -4.459 -6.879
-9.830 -8.644 -1.175
-9.013 -8.690 -0.312
-9.013 -8.690 -0.312
-10.416 -7.479 -2.934
-8.818 -8.324 -0.482
-8.818 -8.324 -0.482
-8.457 -8.725 0.279
-11.308 -4.458 -6.883
-9.732 -8.653 -1.068
-11.306 -4.459 -6.879
-9.797 -8.646 -1.140
-8.425 -8.142 -0.274
-8.609 -8.673 0.075
-8.609 -8.673 0.075
-8.609 -8.673 0.075
-8.597 -8.361 -0.225
-8.706 -8.699 0.004
-8.723 -8.698 -0.014
-8.723 -8.698 -0.014
-8.597 -8.361 -0.225
-8.597 -8.361 -0.225
-11.368 -4.437 -6.964
-8.834 -8.319 -0.503
-8.676 -8.705 0.040
-9.493 -8.653 -0.829
-11.261 -4.463 -6.831
-8.820 -8.323 -0.486
-8.660 -8.713 0.064
-9.845 -8.640 -1.194
-11.343 -4.448 -6.928
-9.810 -8.642 -1.157
-11.352 -4.480 -6.903
-11.261 -4.463 -6.831
-9.736 -8.650 -1.075
-8.660 -8.713 0.063
-9.495 -8.652 -0.832
-11.355 -4.479 -6.907
-9.845 -8.640 -1.194
-9.845 -8.640 -1.194
-8.660 -8.713 0.063
-9.845 -8.640 -1.194
-9.223 -8.720 -0.492
-8.375 -8.674 0.311
-8.375 -8.674 0.311
-8.375 -8.674 0.311
-9.501 -8.652 -0.838
-8.676 -8.709 0.044
-8.376 -8.676 0.311
-10.169 -7.344 -2.821
-10.447 -7.468 -2.976
-10.447 -7.468 -2.976
-11.347 -4.447 -6.933
-10.447 -7.468 -2.976
-8.827 -8.323 -0.493
-9.850 -8.638 -1.201
-8.376 -8.676 0.311
-9.850 -8.638 -1.201
-8.676 -8.709 0.044
-8.676 -8.709 0.044
-8.676 -8.709 0.044
-9.850 -8.638 -1.201
-8.676 -8.709 0.044
-8.676 -8.709 0.044
-8.702 -8.706 0.016
-9.852 -8.638 -1.203
-9.636 -8.644 -0.981
-11.354 -4.479 -6.907
-9.328 -8.715 -0.602
-9.743 -8.649 -1.083
-9.502 -8.651 -0.840
-9.852 -8.638 -1.203
-8.680 -8.708 0.039
-8.436 -8.727 0.302
-8.555 -8.608 0.062
-11.346 -4.446 -6.933
-9.852 -8.638 -1.203
-10.447 -7.468 -2.976
-10.447 -7.468 -2.976
-11.349 -4.445 -6.937
-8.959 -8.711 -0.237
-9.818 -8.641 -1.166
-9.852 -8.638 -1.203
-8.680 -8.708 0.039
-11.346 -4.446 -6.933
-9.852 -8.638 -1.203
-9.852 -8.638 -1.203
-8.350 -8.672 0.333
-9.852 -8.638 -1.203
-11.346 -4.446 -6.933
-11.346 -4.446 -6.933
-9.852 -8.638 -1.203
-9.852 -8.638 -1.203
-9.852 -8.638 -1.203
-11.346 -4.446 -6.933
-8.828 -8.323 -0.494
-7.316 -7.472 0.165
-11.357 -4.478 -6.911
-11.346 -4.446 -6.933
-10.169 -7.344 -2.821
-10.169 -7.344 -2.821
-9.852 -8.638 -1.203
-8.379 -8.675 0.307
-8.379 -8.675 0.307
-11.346 -4.446 -6.933
-11.357 -4.478 -6.911
-10.480 -7.449 -3.028
-9.852 -8.638 -1.203
-9.503 -8.651 -0.841
-11.264 -4.461 -6.835
-11.264 -4.461 -6.835
-11.264 -4.461 -6.835
-11.264 -4.461 -6.835
-11.347 -4.446 -6.933
-11.347 -4.446 -6.933
-11.347 -4.446 -6.933
-11.358 -4.478 -6.911
-11.347 -4.446 -6.933
-9.852 -8.638 -1.203
-8.379 -8.675 0.307
-9.852 -8.638 -1.203
-9.852 -8.638 -1.203
-10.447 -7.468 -2.976
-10.170 -7.343 -2.823
-8.829 -8.323 -0.495
-8.681 -8.708 0.038
-8.555 -8.607 0.061
-8.435 -8.726 0.302
-11.357 -4.478 -6.910
-8.554 -8.611 0.067
-9.852 -8.638 -1.203
-8.671 -8.709 0.049
-11.346 -4.446 -6.933
-11.346 -4.446 -6.933
-11.346 -4.446 -6.933
-8.641 -8.661 0.032
-11.357 -4.478 -6.911
-9.852 -8.638 -1.203
-9.597 -8.646 -0.940
-9.597 -8.646 -0.940
-10.169 -7.344 -2.821
-10.169 -7.344 -2.821
-8.641 -8.662 0.033
-8.349 -8.672 0.334
-8.680 -8.709 0.040
-10.169 -7.344 -2.821
-11.355 -4.479 -6.907
-11.346 -4.446 -6.933
-11.358 -4.478 -6.911
-9.852 -8.638 -1.203
-9.852 -8.638 -1.203
-9.852 -8.638 -1.203
-11.355 -4.479 -6.907
-11.355 -4.479 -6.907
-8.427 -8.124 -0.294
-11.349 -4.481 -6.899
-10.169 -7.344 -2.821
-8.640 -8.662 0.033
-11.355 -4.479 -6.907
-8.640 -8.662 0.033
-11.355 -4.479 -6.907
-11.264 -4.461 -6.835
-11.358 -4.477 -6.912
-11.358 -4.477 -6.912
-11.358 -4.477 -6.912
-11.358 -4.477 -6.912
-9.852 -8.638 -1.203
-8.680 -8.708 0.039
-11.355 -4.479 -6.907
-11.355 -4.479 -6.907
-8.517 -8.613 0.106
-9.852 -8.638 -1.203
-10.169 -7.344 -2.821
-9.818 -8.641 -1.166
-7.886 -8.144 0.268
-11.348 -4.482 -6.898
-8.553 -8.611 0.068
-9.852 -8.638 -1.203
-10.447 -7.468 -2.976
-10.447 -7.468 -2.976
-10.170 -7.343 -2.823
-11.357 -4.478 -6.911
-10.170 -7.343 -2.823
-10.048 -7.292 -2.752
-11.357 -4.478 -6.911
-11.357 -4.478 -6.911
-11.357 -4.478 -6.911
-8.829 -8.323 -0.495
-10.170 -7.343 -2.823
-11.357 -4.478 -6.911
-8.829 -8.323 -0.495
-10.048 -7.292 -2.752
-11.357 -4.478 -6.911
-11.357 -4.478 -6.911
-11.357 -4.478 -6.911
-11.357 -4.478 -6.911
-11.357 -4.478 -6.911
-8.428 -8.123 -0.296
-8.555 -8.607 0.062
-9.852 -8.638 -1.203
-9.852 -8.638 -1.203
-8.828 -8.323 -0.493
-8.679 -8.709 0.041
-11.355 -4.479 -6.907
-11.355 -4.479 -6.907
-11.355 -4.479 -6.907
-8.427 -8.124 -0.294
-8.346 -8.673 0.338
-11.349 -4.481 -6.899
-11.349 -4.481 -6.899
-10.169 -7.344 -2.821
-11.355 -4.479 -6.907
-11.355 -4.479 -6.907
-10.169 -7.344 -2.821
-11.355 -4.479 -6.907
-11.355 -4.479 -6.907
-11.355 -4.479 -6.907
-11.355 -4.479 -6.907
-11.264 -4.461 -6.836
-11.358 -4.477 -6.912
-11.358 -4.477 -6.912
-10.048 -7.291 -2.753
-8.749 -8.701 -0.037
-11.358 -4.477 -6.912
-11.358 -4.477 -6.912
-11.358 -4.477 -6.912
-11.358 -4.477 -6.912
-11.358 -4.477 -6.912
-8.553 -8.611 0.068
-10.480 -7.449 -3.028
-8.554 -8.612 0.067
-11.349 -4.445 -6.937
-8.409 -8.734 0.336
-11.360 -4.476 -6.915
-11.360 -4.476 -6.915
-11.360 -4.476 -6.915
-10.037 -7.344 -2.689
-10.037 -7.344 -2.689
-10.037 -7.344 -2.689
-11.360 -4.477 -6.914
-11.360 -4.477 -6.914
-8.428 -8.123 -0.296
-7.885 -8.144 0.269
-7.885 -8.144 0.269
-11.348 -4.445 -6.935
-11.359 -4.477 -6.913
-8.829 -8.323 -0.496
-11.359 -4.477 -6.913
-11.267 -4.460 -6.839
-11.360 -4.476 -6.915
-8.554 -8.611 0.067
-8.608 -8.729 0.132
-8.409 -8.734 0.336
-11.360 -4.476 -6.915
-7.699 -7.702 0.013
-8.404 -8.140 -0.255
-8.404 -8.140 -0.255
-7.694 -7.704 0.020
-11.370 -4.472 -6.929
-8.620 -8.647 0.038
-8.675 -8.705 0.041
-11.370 -4.472 -6.929
-11.370 -4.472 -6.929
-11.367 -4.437 -6.963
-11.378 -4.469 -6.941
-11.378 -4.469 -6.941
-10.056 -7.286 -2.767
-11.378 -4.469 -6.941
-11.378 -4.469 -6.941
-11.378 -4.469 -6.941
-11.378 -4.469 -6.941
-11.378 -4.469 -6.941
-11.378 -4.469 -6.941
-11.378 -4.469 -6.941
-11.378 -4.469 -6.941
-11.378 -4.469 -6.941
-11.378 -4.469 -6.941
-10.178 -7.337 -2.838
-10.178 -7.337 -2.838
-10.178 -7.337 -2.838
-11.376 -4.470 -6.938
-11.376 -4.470 -6.938
-8.628 -8.723 0.106
-11.379 -4.468 -6.942
-10.178 -7.337 -2.838
-11.379 -4.468 -6.942
-10.056 -7.287 -2.766
-10.056 -7.287 -2.766
-8.835 -8.319 -0.505
-11.379 -4.468 -6.942
-11.379 -4.468 -6.942
-10.056 -7.287 -2.766
-11.379 -4.468 -6.942
-11.379 -4.468 -6.942
-11.379 -4.468 -6.942
-11.379 -4.468 -6.942
-9.158 -8.736 -0.410
-11.357 -4.478 -6.911
-8.554 -8.611 0.067
-11.357 -4.478 -6.911
-8.829 -8.323 -0.495
-10.170 -7.343 -2.823
-8.750 -8.700 -0.039
-8.556 -8.607 0.061
-8.682 -8.708 0.037
-8.556 -8.607 0.061
-8.478 -8.718 0.251
-8.682 -8.708 0.037
-8.556 -8.607 0.061
-8.682 -8.708 0.037
-8.682 -8.708 0.037
-11.357 -4.478 -6.911
-8.613 -8.654 0.053
-8.829 -8.323 -0.495
-8.829 -8.323 -0.495
-8.702 -8.706 0.015
-11.357 -4.478 -6.911
-8.446 -8.728 0.293
-8.446 -8.728 0.293
-8.446 -8.728 0.293
-8.554 -8.611 0.067
-8.829 -8.323 -0.495
-8.681 -8.708 0.038
-6.077 -6.161 0.095
-6.140 -6.170 0.041
-6.091 -6.160 0.081
-11.358 -4.477 -6.912
-11.358 -4.477 -6.912
-6.051 -6.162 0.123
-8.585 -8.395 -0.178
-6.091 -6.133 0.053
-6.281 -6.176 -0.094
-11.358 -4.478 -6.912
-6.074 -6.163 0.100
-11.358 -4.478 -6.912
-11.358 -4.478 -6.912
-11.358 -4.478 -6.912
-11.358 -4.478 -6.912
-6.074 -6.163 0.100
-6.074 -6.163 0.100
-6.098 -6.172 0.086
-6.091 -6.133 0.054
-6.074 -6.163 0.100
-11.358 -4.478 -6.912
-6.046 -6.163 0.128
-6.046 -6.163 0.128
-6.046 -6.163 0.128
-6.074 -6.163 0.100
-11.358 -4.478 -6.912
-6.074 -6.163 0.100
-6.108 -6.133 0.036
-6.091 -6.133 0.054
-6.091 -6.133 0.054
-6.091 -6.133 0.054
-6.091 -6.133 0.054
-6.098 -6.172 0.086
-6.074 -6.163 0.100
-6.074 -6.163 0.100
-6.074 -6.163 0.100
-6.074 -6.163 0.100
-11.358 -4.478 -6.912
-11.358 -4.478 -6.912
-6.074 -6.163 0.100
-6.074 -6.163 0.100
-6.091 -6.133 0.054
-6.091 -6.133 0.054
-6.074 -6.163 0.100
-6.074 -6.163 0.100
-6.098 -6.172 0.086
-6.098 -6.172 0.086
-11.358 -4.478 -6.912
-6.091 -6.133 0.054
-6.091 -6.133 0.054
-5.734 -5.809 0.086
-6.108 -6.133 0.036
-5.734 -5.809 0.086
-6.091 -6.133 0.054
-6.074 -6.162 0.100
-6.098 -6.172 0.086
-8.608 -8.729 0.132
-8.608 -8.729 0.132
-6.074 -6.163 0.100
-6.046 -6.163 0.128
-8.608 -8.729 0.132
-6.091 -6.133 0.054
-6.091 -6.133 0.054
-6.091 -6.133 0.054
-6.281 -6.176 -0.094
-6.086 -6.161 0.087
-6.091 -6.133 0.054
-6.111 -6.170 0.071
-6.058 -6.162 0.115
-6.058 -6.162 0.115
-11.358 -4.478 -6.912
-6.074 -6.163 0.100
-6.074 -6.163 0.100
-5.734 -5.809 0.086
-11.369 -4.452 -6.949
-5.734 -5.809 0.086
-11.358 -4.477 -6.912
-6.080 -6.161 0.093
-6.053 -6.162 0.120
-6.091 -6.133 0.054
-6.091 -6.133 0.054
-6.091 -6.133 0.054
-5.708 -5.809 0.112
-11.358 -4.477 -6.912
-6.053 -6.162 0.120
-5.734 -5.809 0.086
-6.091 -6.133 0.054
-5.708 -5.809 0.112
-6.091 -6.133 0.054
-6.091 -6.133 0.054
-6.281 -6.176 -0.094
-7.466 -7.355 -0.100
-7.080 -6.839 -0.231
-6.091 -6.133 0.054
-8.683 -8.707 0.036
-8.683 -8.707 0.036
-5.917 -5.589 -0.316
-6.091 -6.133 0.054
-6.091 -6.133 0.054
-5.706 -5.809 0.114
-11.358 -4.477 -6.912
-6.080 -6.162 0.093
-6.086 -6.171 0.097
-6.264 -6.185 -0.068
-6.091 -6.133 0.054
-5.706 -5.809 0.114
-8.683 -8.707 0.036
-11.358 -4.477 -6.912
-11.358 -4.477 -6.912
-5.918 -5.589 -0.318
-11.358 -4.477 -6.912
-6.108 -6.133 0.036
-6.098 -6.172 0.086
-6.046 -6.163 0.128
-5.734 -5.809 0.086
-6.108 -6.133 0.036
-6.108 -6.133 0.036
-5.734 -5.809 0.086
-11.358 -4.477 -6.912
-6.102 -6.170 0.080
-5.708 -5.809 0.112
-5.708 -5.809 0.112
-6.091 -6.133 0.054
-6.074 -6.163 0.100
-6.108 -6.133 0.036
-6.098 -6.172 0.086
-6.091 -6.133 0.054
-6.074 -6.163 0.100
-6.074 -6.163 0.100
-6.074 -6.163 0.100
-6.091 -6.133 0.054
-6.091 -6.133 0.054
-5.425 -5.104 -0.310
-6.090 -6.133 0.054
-6.090 -6.133 0.054
-6.090 -6.133 0.054
-6.111 -6.170 0.071
-6.098 -6.170 0.083
-6.090 -6.161 0.082
-8.684 -8.707 0.035
-6.091 -6.133 0.054
-6.069 -6.170 0.112
-6.111 -6.170 0.071
-6.111 -6.170 0.071
-6.111 -6.170 0.071
-6.111 -6.170 0.071
-6.111 -6.170 0.071
-5.467 -5.104 -0.353
-5.467 -5.104 -0.353
-6.111 -6.170 0.071
-5.916 -5.589 -0.316
-5.916 -5.589 -0.316
-6.058 -6.162 0.116
-6.111 -6.170 0.071
-7.080 -6.839 -0.231
-6.091 -6.133 0.054
-6.091 -6.133 0.054
-6.091 -6.133 0.054
-11.358 -4.478 -6.912
-11.358 -4.478 -6.912
-11.358 -4.478 -6.912
-6.108 -6.133 0.036
-5.734 -5.809 0.086
-8.830 -8.323 -0.496
-11.358 -4.477 -6.912
-5.734 -5.809 0.086
-11.369 -4.452 -6.949
-11.369 -4.452 -6.949
-6.080 -6.161 0.093
-8.664 -8.326 -0.326
-5.918 -5.589 -0.317
-8.683 -8.707 0.035
-5.468 -5.104 -0.353
-5.983 -6.192 0.220
-5.689 -5.813 0.136
-6.061 -6.137 0.087
-6.061 -6.137 0.087
-11.394 -4.465 -6.960
-6.073 -6.163 0.101
-6.097 -6.172 0.087
-6.091 -6.133 0.053
-6.091 -6.133 0.053
-6.091 -6.133 0.053
-6.091 -6.133 0.053
-6.091 -6.133 0.053
-6.091 -6.133 0.053
-6.097 -6.172 0.087
-11.394 -4.465 -6.960
-11.394 -4.465 -6.960
-11.394 -4.465 -6.960
-11.394 -4.465 -6.960
-5.733 -5.809 0.087
-6.101 -6.170 0.081
-6.091 -6.133 0.053
-6.046 -6.163 0.129
-11.394 -4.465 -6.960
-11.394 -4.465 -6.960
-11.406 -4.440 -6.997
-6.091 -6.133 0.053
-11.394 -4.465 -6.960
-5.707 -5.809 0.113
-6.091 -6.133 0.053
-5.733 -5.809 0.087
-5.468 -5.103 -0.354
-5.468 -5.103 -0.354
-6.091 -6.161 0.081
-6.114 -6.169 0.066
-5.468 -5.103 -0.354
-6.073 -6.169 0.107
-5.468 -5.103 -0.354
-11.394 -4.465 -6.961
-5.426 -5.103 -0.312
-8.680 -8.703 0.035
-6.114 -6.169 0.066
-8.680 -8.703 0.035
-11.394 -4.465 -6.961
-6.085 -6.171 0.097
-11.394 -4.465 -6.960
-11.394 -4.465 -6.960
-8.603 -8.726 0.134
-6.059 -6.170 0.123
-8.603 -8.726 0.134
-7.139 -6.906 -0.222
-6.099 -6.171 0.083
-11.394 -4.465 -6.960
-11.394 -4.465 -6.960
-5.733 -5.809 0.087
-8.499 -8.614 0.124
-5.733 -5.809 0.087
-7.082 -6.839 -0.233
-11.394 -4.465 -6.960
-5.733 -5.809 0.087
-6.109 -6.133 0.036
-5.468 -5.103 -0.354
-5.731 -5.809 0.089
-6.064 -6.162 0.109
-6.114 -6.169 0.066
-8.680 -8.703 0.035
-8.680 -8.703 0.035
-8.680 -8.703 0.035
-8.680 -8.703 0.035
-6.064 -6.162 0.109
-6.091 -6.161 0.081
-6.114 -6.169 0.066
-6.064 -6.162 0.109
-6.064 -6.162 0.109
-11.394 -4.465 -6.961
-6.101 -6.170 0.081
-8.836 -8.319 -0.506
-6.115 -6.169 0.065
-11.394 -4.465 -6.961
-8.603 -8.726 0.134
-8.603 -8.726 0.134
-8.603 -8.726 0.134
-8.499 -8.614 0.124
-8.603 -8.726 0.134
-8.603 -8.726 0.134
-7.560 -7.955 0.402
-5.733 -5.809 0.087
-5.733 -5.809 0.087
-5.707 -5.809 0.113
-6.101 -6.170 0.081
-6.057 -6.162 0.116
-6.078 -6.162 0.095
-6.057 -6.162 0.116
-5.426 -5.103 -0.312
-11.394 -4.465 -6.961
-11.394 -4.465 -6.961
-11.394 -4.465 -6.961
-6.051 -6.162 0.123
-5.707 -5.809 0.113
-6.091 -6.133 0.053
-8.603 -8.726 0.134
-6.073 -6.163 0.101
-11.394 -4.465 -6.960
-5.468 -5.103 -0.354
-5.468 -5.103 -0.354
-5.468 -5.103 -0.354
-6.091 -6.133 0.053
-6.091 -6.133 0.053
-8.680 -8.703 0.035
-6.068 -6.170 0.113
-8.502 -8.610 0.118
-5.468 -5.103 -0.354
-11.394 -4.465 -6.960
-11.394 -4.465 -6.960
-8.836 -8.319 -0.506
-5.918 -5.588 -0.319
-5.918 -5.588 -0.319
-5.918 -5.588 -0.319
-8.679 -8.703 0.035
-8.679 -8.703 0.035
-8.679 -8.703 0.035
-11.394 -4.465 -6.960
-6.091 -6.133 0.053
-6.091 -6.133 0.053
-6.056 -6.171 0.127
-11.394 -4.465 -6.960
-6.091 -6.133 0.053
-6.097 -6.172 0.087
-5.918 -5.588 -0.318
-11.405 -4.441 -6.996
-5.468 -5.103 -0.354
-5.468 -5.103 -0.354
-6.108 -6.133 0.036
-5.426 -5.103 -0.311
-5.426 -5.103 -0.311
-5.705 -5.809 0.115
-8.680 -8.703 0.035
-6.114 -6.169 0.066
-6.091 -6.133 0.053
-5.426 -5.103 -0.312
-5.426 -5.103 -0.312
-6.085 -6.162 0.089
-8.836 -8.319 -0.506
-6.111 -6.170 0.071
-6.111 -6.170 0.071
-11.394 -4.465 -6.960
-8.603 -8.726 0.134
-8.499 -8.614 0.124
-8.603 -8.726 0.134
-8.499 -8.614 0.124
-11.394 -4.465 -6.960
-6.091 -6.133 0.053
-5.707 -5.809 0.113
-5.707 -5.809 0.113
-6.091 -6.133 0.053
-8.603 -8.726 0.134
-5.468 -5.103 -0.354
-6.085 -6.162 0.089
-8.680 -8.703 0.035
-8.502 -8.610 0.118
-8.680 -8.703 0.035
-11.394 -4.465 -6.960
-5.426 -5.103 -0.312
-5.426 -5.103 -0.312
-6.091 -6.133 0.053
-10.058 -7.287 -2.767
-5.426 -5.104 -0.311
-5.426 -5.104 -0.311
-7.336 -7.457 0.131
-11.317 -4.459 -6.889
-8.603 -8.727 0.135
-8.603 -8.727 0.135
-8.603 -8.727 0.135
-8.603 -8.727 0.135
-8.499 -8.614 0.125
-11.381 -4.470 -6.943
-11.381 -4.470 -6.943
-6.097 -6.172 0.087
-5.425 -5.104 -0.311
-5.731 -5.809 0.089
-5.731 -5.809 0.089
-8.679 -8.704 0.036
-5.705 -5.809 0.115
-5.426 -5.104 -0.311
-5.426 -5.104 -0.311
-8.679 -8.704 0.036
-6.091 -6.161 0.081
-8.679 -8.704 0.036
-8.679 -8.704 0.036
-5.426 -5.104 -0.311
-6.064 -6.162 0.109
-6.114 -6.169 0.066
-5.426 -5.104 -0.311
-6.073 -6.169 0.107
-6.097 -6.170 0.084
-5.705 -5.809 0.115
-5.468 -5.104 -0.354
-8.679 -8.704 0.036
-6.091 -6.161 0.081
-8.679 -8.704 0.036
-7.141 -6.906 -0.225
-5.468 -5.104 -0.353
-11.381 -4.469 -6.944
-11.381 -4.469 -6.944
-5.426 -5.104 -0.311
-6.112 -6.170 0.069
-6.091 -6.133 0.053
-8.679 -8.704 0.036
-8.679 -8.704 0.036
-5.425 -5.104 -0.311
-5.705 -5.809 0.115
-11.382 -4.469 -6.944
-11.382 -4.469 -6.944
-11.382 -4.469 -6.944
-8.603 -8.727 0.135
-6.079 -6.162 0.094
-6.101 -6.170 0.081
-5.707 -5.809 0.113
-5.426 -5.104 -0.311
-5.426 -5.104 -0.311
-5.426 -5.104 -0.311
-5.426 -5.104 -0.311
-5.426 -5.104 -0.311
-5.426 -5.104 -0.311
-7.141 -6.906 -0.225
-6.112 -6.170 0.069
-7.141 -6.906 -0.225
-6.091 -6.133 0.053
-6.091 -6.133 0.053
-8.679 -8.704 0.036
-11.381 -4.470 -6.943
-5.426 -5.104 -0.311
-5.468 -5.104 -0.353
-11.381 -4.470 -6.943
-11.393 -4.444 -6.980
-5.426 -5.104 -0.311
-8.679 -8.704 0.036
-8.679 -8.704 0.036
-5.731 -5.809 0.089
-8.834 -8.319 -0.504
-6.092 -6.160 0.080
-6.115 -6.169 0.065
-11.393 -4.465 -6.959
-8.835 -8.319 -0.505
-6.084 -6.167 0.094
-6.084 -6.167 0.094
-5.683 -5.810 0.138
-6.084 -6.167 0.094
-8.677 -8.704 0.038
-8.677 -8.704 0.038
-6.071 -6.156 0.097
-8.501 -8.610 0.118
-8.677 -8.704 0.038
-8.677 -8.704 0.038
-10.056 -7.286 -2.766
-8.833 -8.319 -0.503
-8.676 -8.705 0.040
-8.676 -8.705 0.039
-8.676 -8.705 0.039
-8.676 -8.705 0.039
-8.676 -8.705 0.040
-5.683 -5.810 0.138
-6.085 -6.160 0.086
-6.085 -6.160 0.086
-7.066 -6.824 -0.232
-6.091 -6.133 0.053
-8.676 -8.705 0.039
-6.092 -6.133 0.053
-8.676 -8.705 0.039
-11.317 -4.459 -6.889
-8.834 -8.319 -0.504
-8.676 -8.705 0.039
-8.676 -8.705 0.039
-5.731 -5.809 0.089
-5.426 -5.104 -0.311
-6.091 -6.161 0.081
-8.679 -8.704 0.036
-8.501 -8.610 0.118
-8.679 -8.704 0.036
-6.091 -6.133 0.053
-6.091 -6.133 0.053
-5.664 -5.816 0.163
-8.412 -8.110 -0.292
-5.705 -5.809 0.114
-6.092 -6.160 0.080
-7.141 -6.906 -0.225
-6.092 -6.133 0.053
-8.501 -8.610 0.119
-8.676 -8.705 0.039
-6.111 -6.170 0.071
-5.466 -5.104 -0.351
-7.085 -6.902 -0.172
-7.428 -7.502 0.085
-7.428 -7.502 0.085
-7.428 -7.502 0.085
-7.085 -6.902 -0.172
-7.428 -7.502 0.085
-7.085 -6.902 -0.172
-7.085 -6.902 -0.172
-7.027 -6.834 -0.183
-7.429 -7.510 0.092
-7.085 -6.902 -0.172
-7.085 -6.902 -0.172
-7.027 -6.834 -0.183
-7.027 -6.834 -0.183
-7.428 -7.502 0.085
-7.428 -7.502 0.085
-7.107 -6.906 -0.190
-7.027 -6.834 -0.183
-7.085 -6.902 -0.172
-7.027 -6.834 -0.183
-7.027 -6.834 -0.183
-7.027 -6.834 -0.183
-7.429 -7.510 0.092
-7.027 -6.834 -0.183
-7.429 -7.510 0.092
-7.429 -7.510 0.092
-7.457 -7.355 -0.091
-7.429 -7.510 0.092
-7.027 -6.834 -0.183
-7.085 -6.902 -0.172
-7.027 -6.834 -0.183
-7.085 -6.902 -0.172
-7.027 -6.834 -0.183
-7.027 -6.834 -0.183
-7.085 -6.902 -0.172
-7.429 -7.510 0.092
-7.085 -6.902 -0.172
-7.085 -6.902 -0.172
-7.428 -7.502 0.085
-7.428 -7.502 0.085
-7.457 -7.355 -0.091
-7.085 -6.902 -0.172
-7.429 -7.510 0.092
-7.085 -6.902 -0.172
-7.085 -6.902 -0.172
-7.429 -7.510 0.092
-7.027 -6.834 -0.183
-7.457 -7.355 -0.091
-7.457 -7.355 -0.091
-7.085 -6.902 -0.172
-7.085 -6.902 -0.172
-7.085 -6.902 -0.172
-7.429 -7.510 0.092
-7.428 -7.502 0.085
-7.027 -6.834 -0.183
-7.428 -7.502 0.085
-7.027 -6.834 -0.183
-7.428 -7.502 0.085
-7.056 -6.837 -0.209
-7.085 -6.902 -0.172
-7.457 -7.355 -0.091
-7.429 -7.510 0.092
-7.429 -7.510 0.092
-7.027 -6.834 -0.183
-7.085 -6.902 -0.172
-7.085 -6.902 -0.172
-7.085 -6.902 -0.172
-7.085 -6.902 -0.172
-7.428 -7.502 0.085
-7.428 -7.502 0.085
-7.428 -7.502 0.085
-7.428 -7.502 0.085
-7.428 -7.502 0.085
-7.457 -7.355 -0.091
-7.027 -6.834 -0.183
-7.428 -7.502 0.085
-7.457 -7.355 -0.091
-7.085 -6.902 -0.172
-7.429 -7.510 0.092
-7.027 -6.834 -0.183
-7.428 -7.502 0.085
-7.457 -7.355 -0.091
-7.027 -6.834 -0.183
-7.027 -6.834 -0.183
-7.457 -7.355 -0.091
-7.085 -6.902 -0.172
-7.027 -6.834 -0.183
-7.085 -6.902 -0.172
-7.085 -6.902 -0.172
-7.085 -6.902 -0.172
-7.027 -6.834 -0.183
-7.027 -6.834 -0.183
-7.027 -6.834 -0.183
-7.503 -7.386 -0.106
-7.083 -6.902 -0.170
-7.048 -6.904 -0.133
-7.024 -6.834 -0.180
-7.024 -6.834 -0.180
-7.024 -6.834 -0.180
-7.083 -6.902 -0.170
-7.083 -6.902 -0.170
-7.024 -6.834 -0.180
-7.024 -6.834 -0.180
-7.083 -6.902 -0.170
-7.024 -6.834 -0.180
-7.083 -6.902 -0.170
-7.083 -6.902 -0.170
-7.425 -7.511 0.097
-7.048 -6.904 -0.133
-7.083 -6.902 -0.170
-7.083 -6.902 -0.170
-7.083 -6.902 -0.170
-7.083 -6.902 -0.170
-7.083 -6.902 -0.170
-7.083 -6.902 -0.170
-7.024 -6.834 -0.180
-7.083 -6.902 -0.170
-7.424 -7.503 0.090
-7.083 -6.902 -0.170
-7.425 -7.511 0.097
-7.024 -6.834 -0.180
-7.024 -6.834 -0.180
-7.024 -6.834 -0.180
-7.024 -6.834 -0.180
-7.425 -7.511 0.097
-7.048 -6.904 -0.133
-7.083 -6.902 -0.170
-7.024 -6.834 -0.180
-7.453 -7.355 -0.086
-7.453 -7.355 -0.086
-7.024 -6.834 -0.180
-7.083 -6.902 -0.170
-7.052 -6.838 -0.204
-7.083 -6.902 -0.170
-7.083 -6.902 -0.170
-7.424 -7.503 0.090
-7.083 -6.902 -0.170
-7.424 -7.503 0.090
-7.453 -7.355 -0.086
-7.024 -6.834 -0.180
-7.083 -6.902 -0.170
-7.024 -6.834 -0.180
-7.024 -6.834 -0.180
-7.083 -6.902 -0.170
-7.083 -6.902 -0.170
-7.024 -6.834 -0.180
-7.024 -6.834 -0.180
-7.083 -6.902 -0.170
-7.425 -7.511 0.097
-7.425 -7.511 0.097
-7.083 -6.902 -0.170
-7.083 -6.902 -0.170
-7.024 -6.834 -0.180
-7.083 -6.902 -0.170
-7.083 -6.902 -0.170
-7.425 -7.511 0.097
-7.083 -6.902 -0.170
-7.083 -6.902 -0.170
-7.024 -6.834 -0.180
-7.024 -6.834 -0.180
-7.024 -6.834 -0.180
-7.024 -6.834 -0.180
-7.083 -6.902 -0.170
-7.424 -7.503 0.090
-7.453 -7.355 -0.086
-7.453 -7.355 -0.086
-7.083 -6.902 -0.170
-7.024 -6.834 -0.180
-7.024 -6.834 -0.180
-7.083 -6.902 -0.170
-7.424 -7.503 0.090
-7.425 -7.511 0.097
-7.083 -6.902 -0.170
-7.424 -7.503 0.090
-7.083 -6.902 -0.170
-7.424 -7.503 0.090
-7.424 -7.503 0.090
-7.083 -6.902 -0.170
-7.024 -6.834 -0.180
-7.053 -6.837 -0.205
-7.083 -6.902 -0.170
-7.083 -6.902 -0.170
-7.424 -7.503 0.090
-7.083 -6.902 -0.170
-7.083 -6.902 -0.170
-7.083 -6.902 -0.170
-7.083 -6.902 -0.170
-7.453 -7.355 -0.086
-7.453 -7.355 -0.086
-7.453 -7.355 -0.086
-7.425 -7.511 0.097
-7.024 -6.834 -0.180
-7.067 -6.824 -0.232
-7.067 -6.824 -0.232
-7.059 -6.823 -0.225
-7.534 -7.471 -0.052
-7.534 -7.471 -0.052
-7.534 -7.471 -0.052
-7.083 -6.903 -0.169
-7.083 -6.903 -0.169
-7.028 -6.834 -0.184
-7.028 -6.834 -0.184
-7.028 -6.834 -0.184
-7.028 -6.834 -0.184
-7.028 -6.834 -0.184
-7.426 -7.502 0.087
-7.083 -6.903 -0.169
-7.083 -6.903 -0.169
-7.083 -6.903 -0.169
-7.083 -6.903 -0.169
-7.083 -6.903 -0.169
-7.028 -6.834 -0.184
-7.083 -6.903 -0.169
-7.428 -7.509 0.091
-7.028 -6.834 -0.184
-7.459 -7.354 -0.093
-7.459 -7.354 -0.093
-7.028 -6.834 -0.184
-7.083 -6.903 -0.169
-7.028 -6.834 -0.184
-7.459 -7.354 -0.093
-7.428 -7.509 0.091
-7.426 -7.502 0.087
-7.459 -7.354 -0.093
-7.459 -7.354 -0.093
-7.459 -7.354 -0.093
-7.083 -6.903 -0.169
-7.459 -7.354 -0.093
-7.083 -6.903 -0.169
-7.083 -6.903 -0.169
-7.028 -6.834 -0.184
-7.028 -6.834 -0.184
-7.428 -7.509 0.091
-7.428 -7.509 0.091
-7.083 -6.903 -0.169
-7.083 -6.903 -0.169
-7.083 -6.903 -0.169
-7.083 -6.903 -0.169
-7.083 -6.903 -0.169
-7.459 -7.354 -0.093
-7.083 -6.903 -0.169
-7.083 -6.903 -0.169
-7.459 -7.354 -0.093
-7.028 -6.834 -0.184
-7.028 -6.834 -0.184
-7.459 -7.354 -0.093
-7.428 -7.509 0.091
-7.028 -6.834 -0.184
-7.083 -6.903 -0.169
-7.083 -6.903 -0.169
-7.083 -6.903 -0.169
-7.083 -6.903 -0.169
-7.083 -6.903 -0.169
-7.083 -6.903 -0.169
-7.083 -6.903 -0.169
-7.459 -7.354 -0.093
-7.028 -6.834 -0.184
-7.083 -6.903 -0.169
-7.428 -7.509 0.091
-7.083 -6.903 -0.169
-7.428 -7.509 0.091
-7.083 -6.903 -0.169
-7.083 -6.903 -0.169
-7.028 -6.834 -0.184
-7.028 -6.834 -0.184
-7.028 -6.834 -0.184
-6.034 -5.993 -0.030
-6.679 -6.632 -0.035
-6.692 -6.619 -0.062
-6.692 -6.619 -0.062
-6.588 -6.611 0.034
-6.030 -5.994 -0.025
-6.588 -6.611 0.034
-6.692 -6.619 -0.062
-6.588 -6.611 0.034
-6.588 -6.611 0.034
-6.591 -6.612 0.033
-6.591 -6.612 0.033
-6.677 -6.632 -0.034
-6.588 -6.611 0.034
-6.588 -6.611 0.034
-6.816 -6.916 0.112
-6.525 -6.524 0.010
-6.525 -6.524 0.010
-6.677 -6.632 -0.034
-6.692 -6.619 -0.062
-6.953 -6.908 -0.034
-6.030 -5.994 -0.025
-6.001 -5.986 -0.004
-6.557 -6.600 0.054
-6.915 -6.907 0.002
-7.204 -7.274 0.080
-7.204 -7.274 0.080
-6.594 -6.612 0.029
-6.594 -6.612 0.029
-6.546 -6.527 -0.007
-6.594 -6.612 0.029
-6.596 -6.613 0.028
-6.915 -6.907 0.002
-6.546 -6.527 -0.007
-6.032 -5.994 -0.027
-6.032 -5.994 -0.027
-6.594 -6.612 0.029
-6.594 -6.612 0.029
-6.594 -6.612 0.029
-7.204 -7.274 0.080
-6.032 -5.995 -0.027
-6.594 -6.612 0.029
-6.594 -6.612 0.029
-6.594 -6.612 0.029
-6.527 -6.523 0.008
-6.594 -6.612 0.029
-6.594 -6.612 0.029
-6.594 -6.612 0.029
-6.594 -6.612 0.029
-6.698 -6.620 -0.067
-6.594 -6.612 0.029
-6.594 -6.612 0.029
-6.594 -6.612 0.029
-6.594 -6.612 0.029
-6.594 -6.612 0.029
-6.594 -6.612 0.029
-6.596 -6.613 0.028
-6.361 -6.524 0.175
-6.361 -6.524 0.175
-6.361 -6.524 0.175
-6.361 -6.524 0.175
-6.527 -6.523 0.008
-6.594 -6.612 0.029
-6.594 -6.612 0.029
-6.953 -6.908 -0.035
-6.915 -6.907 0.002
-6.915 -6.907 0.002
-6.915 -6.907 0.002
-6.361 -6.524 0.175
-6.915 -6.907 0.002
-6.593 -6.612 0.030
-6.557 -6.600 0.054
-6.032 -5.995 -0.026
-6.915 -6.907 0.002
-6.593 -6.612 0.030
-6.953 -6.908 -0.035
-6.361 -6.524 0.175
-6.546 -6.527 -0.007
-6.594 -6.612 0.029
-6.596 -6.613 0.028
-6.557 -6.599 0.053
-6.594 -6.612 0.029
-6.817 -6.916 0.110
-6.915 -6.907 0.002
-7.204 -7.274 0.080
-6.679 -6.632 -0.036
-6.594 -6.612 0.029
-6.594 -6.612 0.029
-6.001 -5.986 -0.004
-6.546 -6.527 -0.007
-6.546 -6.527 -0.007
-6.546 -6.527 -0.007
-6.594 -6.612 0.029
-6.361 -6.524 0.174
-6.361 -6.524 0.174
-6.361 -6.524 0.174
-6.594 -6.612 0.029
-6.594 -6.612 0.029
-6.953 -6.908 -0.035
-6.593 -6.612 0.030
-6.361 -6.524 0.175
-6.593 -6.612 0.030
-6.593 -6.612 0.030
-6.593 -6.612 0.030
-6.593 -6.612 0.030
-6.593 -6.612 0.030
-6.593 -6.612 0.030
-6.593 -6.612 0.030
-6.593 -6.612 0.030
-6.361 -6.524 0.175
-6.953 -6.908 -0.035
-6.526 -6.524 0.009
-6.593 -6.612 0.030
-6.526 -6.524 0.009
-6.032 -5.995 -0.026
-6.593 -6.612 0.030
-7.204 -7.274 0.080
-6.546 -6.527 -0.007
-6.594 -6.612 0.029
-6.594 -6.612 0.029
-6.594 -6.612 0.029
-6.558 -6.599 0.053
-7.205 -7.274 0.080
-6.594 -6.612 0.029
-6.594 -6.612 0.029
-6.594 -6.612 0.029
-6.594 -6.612 0.029
-6.594 -6.612 0.029
-6.527 -6.523 0.008
-6.558 -6.599 0.053
-6.594 -6.612 0.029
-7.081 -7.265 0.194
-7.204 -7.274 0.080
-6.698 -6.620 -0.067
-6.546 -6.527 -0.007
-6.594 -6.612 0.029
-6.594 -6.612 0.029
-6.558 -6.599 0.053
-6.434 -6.899 0.477
-7.205 -7.274 0.080
-6.502 -6.917 0.427
-6.953 -6.908 -0.035
-7.205 -7.274 0.080
-6.558 -6.599 0.053
-6.361 -6.524 0.175
-6.610 -6.612 0.013
-6.594 -6.612 0.029
-6.596 -6.613 0.028
-6.596 -6.613 0.028
-6.953 -6.908 -0.035
-6.526 -6.515 -0.000
-6.032 -5.995 -0.026
-6.915 -6.907 0.002
-6.593 -6.612 0.030
-6.953 -6.908 -0.035
-7.205 -7.274 0.080
-7.205 -7.274 0.080
-6.594 -6.612 0.029
-6.594 -6.612 0.029
-6.527 -6.523 0.008
-6.527 -6.523 0.008
-7.204 -7.274 0.080