-21.655 -4.437 -17.464
-21.655 -4.437 -17.464
-20.625 -4.761 -16.293
-17.328 -5.143 -12.617
-20.815 -4.812 -16.429
-20.815 -4.812 -16.429
-11.669 -4.815 -6.944
-20.764 -4.765 -16.422
-21.658 -4.436 -17.468
-21.658 -4.436 -17.468
-11.669 -4.815 -6.943
-14.690 -4.234 -10.935
-14.690 -4.234 -10.935
-21.660 -4.436 -17.470
-20.764 -4.765 -16.422
-11.669 -4.815 -6.943
-20.764 -4.765 -16.422
-17.328 -5.143 -12.617
-14.690 -4.234 -10.935
-21.660 -4.436 -17.470
-14.890 -4.257 -11.108
-17.401 -5.198 -12.628
-21.660 -4.436 -17.470
-7.411 -5.432 -1.977
-21.660 -4.436 -17.470
-20.813 -4.812 -16.428
-21.660 -4.436 -17.470
-20.764 -4.765 -16.422
-11.669 -4.815 -6.943
-21.658 -4.436 -17.468
-21.658 -4.436 -17.468
-20.811 -4.813 -16.424
-14.690 -4.234 -10.935
-11.669 -4.815 -6.944
-7.411 -5.432 -1.977
-11.669 -4.815 -6.944
-14.890 -4.257 -11.108
-20.513 -4.807 -16.114
-20.513 -4.807 -16.114
-14.633 -4.260 -10.853
-11.662 -4.818 -6.934
-21.612 -4.442 -17.415
-14.836 -4.282 -11.029
-17.847 -8.389 -9.478
-14.818 -4.290 -11.003
-21.600 -4.443 -17.401
-11.661 -4.819 -6.931
-14.818 -4.290 -11.003
-20.513 -4.807 -16.114
-20.513 -4.807 -16.114
-14.833 -4.283 -11.025
-20.753 -4.824 -16.356
-21.186 -4.423 -16.994
-20.513 -4.807 -16.114
-14.633 -4.260 -10.853
-14.633 -4.260 -10.853
-21.543 -4.401 -17.379
-20.513 -4.807 -16.114
-17.569 -7.893 -9.709
-20.742 -4.827 -16.341
-17.042 -5.222 -12.218
-9.715 -3.715 -6.109
-14.839 -4.281 -11.034
-9.372 -3.782 -5.692
-11.663 -4.818 -6.934
-13.687 -4.517 -9.568
-20.758 -4.823 -16.362
-17.847 -8.389 -9.478
-21.600 -4.443 -17.401
-21.600 -4.443 -17.401
-14.633 -4.260 -10.852
-9.715 -3.715 -6.108
-20.513 -4.807 -16.114
-11.662 -4.818 -6.933
-13.683 -4.518 -9.563
-13.683 -4.518 -9.563
-11.662 -4.818 -6.933
-14.833 -4.283 -11.025
-14.833 -4.283 -11.025
-20.679 -4.802 -16.288
-21.611 -4.442 -17.413
-7.440 -7.830 0.420
-20.513 -4.807 -16.114
-11.649 -4.824 -6.920
-21.611 -4.442 -17.413
-17.591 -7.818 -9.754
-9.709 -3.718 -6.099
-11.654 -4.822 -6.921
-20.690 -4.835 -16.281
-11.654 -4.822 -6.921
-11.654 -4.822 -6.921
-9.361 -3.777 -5.678
-20.236 -4.819 -15.820
-13.655 -4.530 -9.523
-13.712 -4.489 -9.624
-20.647 -4.783 -16.286
-9.390 -3.780 -5.712
-20.623 -4.809 -16.223
-14.793 -4.308 -10.960
-21.570 -4.447 -17.366
-20.706 -4.831 -16.301
-20.623 -4.809 -16.223
-14.793 -4.308 -10.960
-21.570 -4.447 -17.366
-17.886 -7.812 -10.125
-11.048 -4.927 -6.195
-9.364 -3.777 -5.682
-9.225 -8.071 -1.128
-20.676 -4.837 -16.264
-7.355 -5.423 -1.931
-9.361 -3.777 -5.677
-20.609 -4.811 -16.207
-20.236 -4.819 -15.820
-9.390 -3.780 -5.711
-11.656 -4.821 -6.924
-11.656 -4.821 -6.924
-20.624 -4.809 -16.223
-20.624 -4.809 -16.223
-21.308 -4.423 -17.117
-21.308 -4.423 -17.117
-20.647 -4.783 -16.286
-20.647 -4.783 -16.286
-9.390 -3.780 -5.712
-20.647 -4.783 -16.286
-20.647 -4.783 -16.286
-17.590 -7.818 -9.754
-20.619 -4.810 -16.218
-20.619 -4.810 -16.218
-20.236 -4.819 -15.820
-18.248 -8.314 -9.947
-20.619 -4.810 -16.218
-11.655 -4.821 -6.923
-11.655 -4.821 -6.923
-11.655 -4.821 -6.923
-7.806 -8.585 0.810
-21.567 -4.447 -17.363
-11.655 -4.821 -6.923
-7.894 -8.090 0.224
-9.713 -3.717 -6.105
-21.319 -4.421 -17.130
-20.248 -4.816 -15.835
-9.393 -3.779 -5.716
-9.393 -3.779 -5.716
-20.659 -4.780 -16.301
-20.659 -4.780 -16.301
-20.248 -4.816 -15.835
-7.430 -7.831 0.431
-20.659 -4.780 -16.301
-7.896 -8.092 0.225
-18.264 -8.312 -9.965
-20.248 -4.816 -15.835
-13.663 -4.526 -9.535
-14.802 -4.303 -10.974
-18.264 -8.312 -9.965
-9.162 -8.171 -0.978
-9.436 -6.307 -3.115
-13.657 -4.527 -9.528
-13.715 -4.487 -9.629
-11.665 -4.818 -6.937
-14.592 -4.276 -10.795
-20.640 -4.805 -16.245
-17.845 -7.810 -10.086
-21.586 -4.443 -17.386
-13.660 -4.526 -9.532
-21.586 -4.443 -17.386
-9.630 -8.178 -1.446
-21.571 -4.445 -17.369
-20.649 -4.781 -16.291
-11.666 -4.818 -6.937
-13.661 -4.526 -9.533
-9.374 -3.781 -5.694
-9.474 -6.299 -3.162
-21.320 -4.420 -17.133
-8.086 -8.177 0.124
-9.374 -3.773 -5.696
-7.846 -8.090 0.272
-17.145 -7.917 -9.210
-17.145 -7.917 -9.210
-17.982 -7.822 -10.208
-9.375 -3.773 -5.696
-17.254 -5.230 -12.441
-7.422 -7.833 0.442
-8.145 -8.791 0.677
-7.959 -8.075 0.143
-11.666 -4.818 -6.937
-17.604 -7.815 -9.770
-11.652 -4.824 -6.923
-7.409 -5.434 -1.974
-13.657 -4.527 -9.528
-20.640 -4.805 -16.245
-21.681 -4.428 -17.494
-13.669 -4.523 -9.544
-11.004 -4.950 -6.123
-9.630 -8.178 -1.446
-20.256 -4.814 -15.846
-21.595 -4.442 -17.397
-21.684 -4.428 -17.497
-8.148 -8.108 -0.008
-20.668 -4.778 -16.312
-13.670 -4.523 -9.546
-17.686 -7.832 -9.835
-7.527 -7.802 0.305
-13.706 -4.489 -9.618
-17.151 -7.916 -9.218
-9.375 -3.773 -5.697
-21.583 -4.444 -17.382
-20.711 -4.830 -16.307
-11.666 -4.818 -6.937
-9.371 -3.772 -5.693
-7.530 -7.800 0.301
-14.862 -4.219 -11.122
-21.582 -4.444 -17.382
-17.686 -7.832 -9.835
-20.664 -4.779 -16.308
-9.396 -6.314 -3.067
-9.401 -3.776 -5.726
-11.667 -4.817 -6.939
-21.330 -4.419 -17.144
-9.726 -3.808 -6.022
-9.726 -3.808 -6.022
-17.326 -4.755 -12.881
-11.671 -4.815 -6.946
-7.753 -8.500 0.776
-8.170 -8.468 0.325
-14.886 -4.257 -11.104
-7.360 -5.421 -1.938
-20.759 -4.766 -16.417
-7.455 -7.823 0.398
-10.235 -6.708 -3.502
-13.731 -4.481 -9.651
-7.409 -5.433 -1.975
-20.697 -4.778 -16.343
-11.651 -4.823 -6.923
-13.678 -4.520 -9.556
-9.379 -6.085 -3.266
-17.710 -8.379 -9.351
-17.168 -7.909 -9.242
-15.789 -8.082 -7.686
-20.724 -4.834 -16.317
-11.645 -4.827 -6.908
-17.288 -5.226 -12.479
-9.140 -8.174 -0.952
-20.700 -4.780 -16.345
-8.398 -8.153 -0.229
-16.124 -8.579 -8.016
-7.540 -7.799 0.289
-9.361 -3.781 -5.674
-8.154 -8.476 0.349
-17.726 -8.376 -9.370
-11.043 -4.931 -6.187
-7.539 -7.800 0.292
-18.171 -8.300 -9.883
-14.772 -4.314 -10.932
-14.772 -4.314 -10.932
-17.386 -7.896 -9.532
-7.531 -7.802 0.301
-20.692 -4.837 -16.281
-13.646 -4.533 -9.510
-13.646 -4.533 -9.510
-20.620 -4.813 -16.217
-17.603 -7.816 -9.768
-7.524 -7.802 0.309
-20.691 -4.838 -16.280
-17.603 -7.816 -9.768
-7.353 -5.423 -1.929
-8.465 -6.719 -1.745
-20.691 -4.838 -16.280
-21.560 -4.451 -17.353
-8.089 -8.179 0.122
-8.728 -8.507 -0.194
-17.695 -8.386 -9.326
-14.416 -4.368 -10.525
-14.416 -4.368 -10.525
-8.092 -8.178 0.119
-21.572 -4.450 -17.367
-11.645 -4.828 -6.908
-11.037 -4.932 -6.181
-14.789 -4.307 -10.957
-16.030 -8.586 -7.465
-9.272 -6.100 -3.144
-21.559 -4.452 -17.352
-17.695 -8.386 -9.326
-20.691 -4.838 -16.280
-5.272 -5.511 0.268
-15.085 -8.711 -6.406
-14.772 -4.314 -10.932
-13.645 -4.533 -9.509
-13.645 -4.533 -9.509
-9.638 -8.178 -1.455
-20.236 -4.822 -15.818
-8.091 -8.178 0.120
-21.573 -4.450 -17.368
-9.121 -5.995 -3.101
-17.272 -5.225 -12.466
-21.573 -4.450 -17.368
-21.311 -4.427 -17.119
-7.428 -7.831 0.433
-7.428 -7.831 0.433
-7.855 -8.092 0.266
-7.614 -8.551 0.961
-8.091 -8.178 0.120
-8.091 -8.178 0.120
-9.150 -6.315 -2.830
-8.091 -8.178 0.120
-14.580 -4.285 -10.774
-21.576 -4.450 -17.371
-21.576 -4.450 -17.371
-7.855 -8.092 0.266
-20.709 -4.834 -16.303
-17.684 -7.832 -9.833
-20.236 -4.822 -15.818
-14.790 -4.306 -10.958
-21.573 -4.450 -17.368
-20.707 -4.834 -16.299
-7.428 -7.832 0.434
-7.454 -6.732 -0.703
-7.534 -7.800 0.296
-11.645 -4.827 -6.908
-7.540 -7.799 0.289
-20.707 -4.834 -16.299
-16.118 -8.577 -8.014
-17.684 -7.832 -9.833
-8.089 -8.179 0.123
-7.530 -7.802 0.302
-8.010 -8.524 0.544
-7.525 -7.802 0.308
-7.530 -7.802 0.302
-21.560 -4.451 -17.353
-13.644 -4.533 -9.509
-21.560 -4.451 -17.353
-7.607 -4.592 -3.062
-11.643 -4.828 -6.905
-13.644 -4.533 -9.509
-7.452 -6.733 -0.700
-7.531 -7.802 0.301
-7.526 -7.802 0.306
-9.355 -3.783 -5.666
-16.273 -8.558 -8.184
-9.972 -8.249 -1.716
-20.474 -4.792 -16.103
-7.878 -7.780 -0.068
-14.784 -4.309 -10.949
-14.866 -4.222 -11.122
-13.711 -4.490 -9.621
-13.711 -4.490 -9.621
-17.149 -7.916 -9.215
-17.602 -7.816 -9.768
-15.274 -8.179 -7.077
-14.416 -4.368 -10.526
-7.984 -8.482 0.529
-8.092 -8.178 0.119
-7.528 -7.800 0.303
-7.353 -5.424 -1.928
-7.914 -7.782 -0.102
-7.720 -8.514 0.824
-9.147 -6.316 -2.826
-7.535 -7.800 0.296
-7.535 -7.800 0.296
-7.035 -7.452 0.446
-16.125 -8.578 -8.018
-13.652 -4.531 -9.518
-13.652 -4.531 -9.518
-13.652 -4.531 -9.518
-9.139 -8.174 -0.952
-7.353 -5.423 -1.929
-21.566 -4.451 -17.360
-13.652 -4.531 -9.518
-9.364 -3.797 -5.671
-20.698 -4.836 -16.289
-20.476 -4.792 -16.106
-11.645 -4.828 -6.907
-7.534 -7.799 0.295
-9.636 -8.178 -1.453
-8.010 -8.523 0.543
-15.297 -8.185 -7.137
-17.689 -8.388 -9.319
-8.088 -8.179 0.123
-7.405 -5.435 -1.969
-9.019 -6.017 -2.977
-5.054 -5.495 0.473
-7.405 -5.435 -1.969
-9.199 -6.308 -2.885
-21.556 -4.452 -17.348
-8.090 -8.109 0.052
-8.088 -8.179 0.123
-7.451 -6.733 -0.699
-21.556 -4.452 -17.348
-20.636 -4.788 -16.272
-20.636 -4.788 -16.272
-8.091 -8.178 0.120
-11.644 -4.828 -6.906
-17.602 -7.816 -9.768
-7.452 -6.733 -0.700
-7.405 -5.435 -1.969
-7.353 -5.424 -1.928
-20.620 -4.813 -16.217
-8.091 -8.178 0.120
-8.091 -8.178 0.120
-5.336 -5.469 0.162
-13.712 -4.490 -9.622
-7.454 -6.732 -0.703
-21.571 -4.450 -17.365
-11.003 -4.957 -6.115
-17.602 -7.816 -9.768
-8.089 -8.179 0.123
-9.092 -5.991 -3.076
-7.142 -7.841 0.730
-16.031 -8.586 -7.466
-15.270 -8.180 -7.071
-16.265 -8.559 -8.174
-8.089 -8.179 0.123
-21.562 -4.451 -17.356
-9.477 -6.299 -3.165
-9.477 -6.299 -3.165
-21.576 -4.445 -17.375
-7.358 -5.422 -1.934
-7.719 -8.515 0.825
-20.705 -4.832 -16.299
-8.088 -8.109 0.053
-14.779 -4.305 -10.950
-9.380 -3.780 -5.701
-11.654 -4.823 -6.925
-21.662 -4.432 -17.472
-21.576 -4.445 -17.375
-9.269 -5.983 -3.260
-7.409 -5.434 -1.974
-7.528 -7.801 0.304
-7.885 -8.053 0.196
-7.591 -4.582 -3.056
-7.357 -5.423 -1.933
-7.357 -5.423 -1.933
-8.010 -8.531 0.551
-7.528 -7.801 0.304
-17.148 -7.916 -9.214
-15.105 -8.713 -6.422
-7.526 -7.803 0.306
-7.667 -8.506 0.859
-11.464 -4.946 -6.601
-15.348 -8.116 -7.212
-7.879 -8.490 0.641
-7.416 -4.918 -2.472
-13.309 -5.075 -8.717
-11.459 -4.947 -6.595
-21.634 -4.438 -17.441
-7.462 -6.733 -0.709
-11.670 -4.815 -6.945
-7.898 -7.774 -0.094
-7.554 -7.793 0.270
-7.741 -8.505 0.794
-7.549 -7.794 0.275
-7.462 -6.733 -0.709
-7.553 -7.794 0.271
-9.327 -6.092 -3.207
-13.691 -4.515 -9.574
-8.387 -8.138 -0.233
-9.077 -6.005 -3.047
-21.624 -4.443 -17.427
-14.657 -4.248 -10.888
-8.104 -8.178 0.107
-20.573 -4.777 -16.219
-9.389 -6.085 -3.277
-17.220 -4.811 -12.818
-13.704 -4.511 -9.591
-21.640 -4.442 -17.445
-9.190 -6.305 -2.882
-7.627 -4.581 -3.093
-11.012 -4.953 -6.129
-16.290 -7.959 -8.310
-8.019 -8.513 0.525
-16.230 -8.564 -8.135
-9.088 -8.176 -0.898
-9.441 -6.306 -3.120
-7.719 -8.509 0.819
-8.157 -8.473 0.343
-17.050 -4.774 -12.684
-21.619 -4.440 -17.424
-9.087 -8.178 -0.895
-9.478 -6.299 -3.166
-9.467 -6.071 -3.369
-7.675 -4.568 -3.154
-8.099 -8.178 0.112
-8.283 -6.209 -2.099
-7.790 -7.815 0.036
-14.495 -8.011 -6.495
-9.379 -3.771 -5.703
-9.174 -6.004 -3.144
-16.297 -8.552 -8.213
-9.225 -5.993 -3.206
-13.734 -4.479 -9.656
-5.113 -5.822 0.742
-15.788 -8.070 -7.697
-16.143 -8.574 -8.040
-9.228 -5.992 -3.210
-8.104 -8.099 0.028
-15.397 -8.169 -7.209
-6.823 -7.431 0.638
-7.537 -7.795 0.289
-8.019 -8.518 0.529
-14.828 -4.287 -11.016
-4.923 -4.859 -0.032
-20.751 -4.821 -16.355
-7.963 -8.137 0.206
-7.459 -6.733 -0.707
-8.019 -8.515 0.527
-9.437 -6.307 -3.116
-9.098 -8.175 -0.908
-21.536 -4.431 -17.344
-5.711 -5.252 -0.429
-13.736 -4.478 -9.659
-9.221 -5.993 -3.201
-5.706 -5.253 -0.423
-9.268 -5.983 -3.258
-21.613 -4.440 -17.417
-14.463 -4.344 -10.597
-20.758 -4.820 -16.364
-13.744 -4.476 -9.669
-7.359 -5.422 -1.936
-9.220 -5.994 -3.200
-16.306 -8.550 -8.224
-8.020 -8.517 0.528
-17.171 -4.816 -12.763
-8.099 -8.178 0.112
-7.359 -5.422 -1.935
-9.171 -6.004 -3.140
-8.563 -6.591 -2.003
-7.801 -7.807 0.018
-21.606 -4.441 -17.410
-9.477 -6.299 -3.166
-13.676 -4.520 -9.555
-9.087 -8.178 -0.894
-8.397 -8.159 -0.223
-16.148 -8.573 -8.046
-9.437 -6.307 -3.116
-8.098 -8.178 0.113
-7.735 -8.508 0.803
-8.098 -8.178 0.113
-8.572 -6.591 -2.011
-17.683 -7.832 -9.832
-5.114 -5.822 0.742
-5.781 -6.010 0.262
-7.600 -4.582 -3.065
-17.695 -8.386 -9.326
-20.271 -4.829 -15.847
-13.664 -4.525 -9.538
-15.266 -8.174 -7.073
-7.713 -8.516 0.832
-7.525 -7.802 0.307
-15.266 -8.174 -7.073
-5.114 -5.822 0.741
-9.346 -6.082 -3.238
-8.090 -8.178 0.121
-9.378 -3.772 -5.701
-11.669 -4.817 -6.942
-8.090 -8.178 0.121
-9.225 -5.993 -3.206
-21.586 -4.444 -17.386
-13.577 -4.525 -9.452
-14.725 -4.289 -10.914
-13.663 -4.525 -9.536
-8.598 -6.587 -2.043
-13.663 -4.525 -9.536
-5.951 -6.024 0.083
-7.625 -4.585 -3.087
-15.164 -8.153 -6.993
-8.091 -8.178 0.120
-16.262 -7.983 -8.257
-7.712 -8.517 0.834
-8.010 -8.522 0.542
-7.941 -7.613 -0.312
-17.149 -7.916 -9.215
-9.149 -8.171 -0.964
-9.278 -6.099 -3.152
-8.089 -8.179 0.122
-20.694 -4.837 -16.284
-7.425 -7.833 0.439
-9.702 -3.724 -6.086
-8.011 -8.524 0.543
-8.431 -6.724 -1.705
-7.542 -4.596 -2.993
-16.281 -8.556 -8.193
-13.647 -4.532 -9.512
-7.452 -6.733 -0.700
-7.405 -5.435 -1.969
-9.433 -6.308 -3.111
-8.001 -8.430 0.460
-8.089 -8.109 0.052
-15.929 -8.574 -7.376
-8.088 -8.179 0.124
-17.148 -7.916 -9.215
-9.088 -8.177 -0.897
-4.923 -4.860 -0.032
-20.660 -4.780 -16.303
-21.588 -4.444 -17.389
-7.359 -5.422 -1.935
-7.359 -5.422 -1.935
-7.723 -8.513 0.819
-8.093 -8.106 0.045
-7.453 -6.733 -0.701
-13.713 -4.486 -9.628
-15.162 -8.164 -6.979
-7.386 -7.972 0.604
-5.047 -5.416 0.401
-21.588 -4.444 -17.389
-15.315 -8.159 -7.137
-7.410 -5.434 -1.975
-9.090 -8.177 -0.898
-9.224 -5.993 -3.204
-14.877 -4.211 -11.145
-5.048 -5.492 0.476
-21.588 -4.444 -17.388
-9.395 -6.315 -3.065
-7.677 -4.569 -3.155
-9.395 -6.076 -3.293
-9.269 -5.983 -3.260
-5.711 -5.253 -0.428
-8.600 -6.587 -2.045
-7.515 -7.272 -0.231
-5.337 -5.459 0.152
-5.111 -5.823 0.744
-9.216 -5.994 -3.196
-9.401 -6.079 -3.296
-7.587 -4.582 -3.052
-9.327 -6.084 -3.217
-11.037 -4.929 -6.188
-7.533 -7.799 0.297
-7.735 -8.493 0.788
-8.011 -8.525 0.545
-7.533 -7.799 0.297
-21.585 -4.445 -17.384
-9.269 -5.983 -3.260
-17.602 -7.816 -9.768
-15.008 -8.700 -6.339
-8.088 -8.179 0.124
-9.339 -6.083 -3.230
-13.652 -4.529 -9.522
-21.576 -4.445 -17.375
-7.675 -4.569 -3.153
-5.710 -5.253 -0.427
-5.047 -5.417 0.401
-11.667 -4.817 -6.939
-14.540 -8.222 -6.300
-15.023 -8.698 -6.357
-9.329 -6.084 -3.219
-9.369 -6.085 -3.256
-7.696 -7.521 -0.144
-9.324 -6.093 -3.204
-5.048 -5.414 0.398
-21.560 -4.451 -17.354
-9.070 -6.005 -3.039
-7.452 -6.733 -0.700
-5.587 -6.002 0.447
-4.921 -4.861 -0.029
-8.088 -8.180 0.126
-9.338 -3.789 -5.642
-7.739 -7.792 0.083
-7.739 -7.792 0.083
-9.316 -6.318 -2.982
-9.316 -6.318 -2.982
-8.670 -8.170 -0.471
-7.951 -4.561 -3.448
-13.298 -5.064 -8.716
-17.281 -4.811 -12.766
-15.677 -8.269 -7.388
-9.384 -3.779 -5.706
-7.608 -4.581 -3.075
-7.679 -4.574 -3.152
-9.036 -8.195 -0.826
-9.036 -8.195 -0.826
-8.623 -8.115 -0.478
-9.227 -5.992 -3.209
-11.061 -4.923 -6.212
-15.557 -8.613 -6.968
-21.599 -4.444 -17.399
-7.991 -8.503 0.543
-5.612 -6.042 0.435
-8.097 -8.106 0.041
-8.090 -8.179 0.122
-8.522 -7.837 -0.656
-10.095 -5.447 -4.994
-9.438 -6.307 -3.117
-9.724 -3.713 -6.119
-21.601 -4.444 -17.402
-5.115 -5.822 0.740
-7.702 -7.525 -0.147
-8.005 -8.526 0.551
-7.174 -7.639 0.496
-8.005 -8.526 0.551
-7.892 -8.090 0.226
-13.684 -4.516 -9.566
-7.668 -7.584 -0.053
-9.088 -8.178 -0.896
-9.229 -5.992 -3.211
-8.010 -8.526 0.546
-5.039 -5.704 0.697
-9.412 -6.078 -3.308
-21.617 -4.441 -17.421
-9.477 -6.298 -3.166
-7.849 -8.092 0.271
-17.167 -4.818 -12.752
-7.849 -8.092 0.270
-7.732 -8.130 0.419
-7.721 -8.514 0.823
-8.010 -8.522 0.543
-9.231 -5.992 -3.213
-8.151 -8.477 0.354
-7.534 -7.800 0.297
-7.735 -8.495 0.791
-7.393 -7.964 0.589
-7.602 -4.580 -3.069
-9.381 -3.770 -5.706
-9.226 -5.992 -3.207
-13.111 -7.820 -5.493
-14.831 -4.276 -11.031
-10.980 -4.960 -6.087
-4.783 -5.384 0.632
-17.601 -7.816 -9.766
-8.088 -8.179 0.124
-9.088 -8.178 -0.896
-16.271 -8.558 -8.181
-15.273 -8.179 -7.075
-15.520 -8.675 -6.874
-7.715 -8.516 0.830
-9.393 -6.075 -3.292
-8.012 -8.493 0.511
-21.576 -4.445 -17.374
-9.391 -6.315 -3.060
-9.389 -3.778 -5.713
-21.576 -4.445 -17.374
-15.929 -8.574 -7.376
-8.010 -8.508 0.529
-9.338 -6.083 -3.229
-9.088 -8.178 -0.896
-8.087 -8.179 0.125
-8.567 -6.591 -2.007
-11.667 -4.818 -6.938
-9.089 -8.177 -0.898
-7.535 -7.801 0.297
-9.089 -8.177 -0.898
-8.087 -8.179 0.125
-13.706 -4.489 -9.618
-7.989 -8.460 0.502
-13.705 -4.489 -9.617
-7.752 -8.154 0.422
-7.729 -8.496 0.798
-9.088 -8.178 -0.896
-8.010 -8.522 0.543
-9.393 -6.076 -3.292
-9.088 -8.178 -0.896
-11.666 -4.818 -6.937
-7.843 -8.050 0.236
-9.219 -5.994 -3.199
-7.892 -8.090 0.226
-9.346 -6.324 -3.004
-10.161 -5.447 -5.058
-9.369 -6.085 -3.256
-7.390 -7.970 0.598
-8.464 -6.719 -1.744
-7.551 -4.590 -3.009
-7.536 -4.597 -2.986
-9.197 -6.309 -2.883
-5.441 -6.402 0.862
-11.035 -4.933 -6.178
-9.197 -6.309 -2.883
-17.233 -5.233 -12.417
-5.708 -5.250 -0.428
-7.685 -8.523 0.869
-21.553 -4.452 -17.345
-9.477 -6.299 -3.165
-13.706 -4.489 -9.618
-7.272 -7.961 0.721
-9.088 -8.178 -0.896
-11.061 -4.923 -6.213
-8.358 -7.932 -0.397
-9.354 -6.323 -3.015
-7.846 -8.090 0.272
-13.699 -4.491 -9.608
-9.271 -5.983 -3.262
-9.271 -5.983 -3.262
-7.660 -4.579 -3.128
-7.660 -4.579 -3.128
-21.570 -4.446 -17.368
-13.602 -6.838 -6.883
-9.435 -6.307 -3.113
-9.221 -5.994 -3.201
-9.221 -5.994 -3.201
-7.731 -8.495 0.795
-8.564 -6.591 -2.004
-8.010 -8.515 0.536
-7.608 -4.575 -3.081
-7.580 -8.517 0.970
-7.411 -7.963 0.583
-9.435 -6.307 -3.113
-9.175 -6.003 -3.145
-9.175 -6.003 -3.145
-9.088 -8.178 -0.896
-7.719 -8.516 0.827
-9.088 -8.178 -0.896
-13.712 -4.487 -9.625
-11.654 -4.823 -6.926
-5.048 -5.493 0.477
-21.579 -4.445 -17.378
-9.723 -3.714 -6.117
-5.113 -5.822 0.743
-11.060 -4.921 -6.214
-15.114 -8.709 -6.437
-9.170 -6.004 -3.140
-7.536 -7.802 0.297
-6.947 -8.106 1.135
-7.734 -8.494 0.791
-13.656 -4.527 -9.527
-7.995 -8.499 0.535
-7.850 -8.092 0.270
-11.005 -4.950 -6.124
-7.429 -7.834 0.436
-5.043 -5.704 0.694
-5.708 -5.254 -0.424
-8.437 -6.464 -2.002
-9.077 -8.181 -0.882
-13.308 -6.694 -6.771
-13.451 -6.830 -6.745
-7.595 -4.582 -3.060
-11.654 -4.823 -6.925
-7.535 -7.800 0.295
-9.089 -8.177 -0.897
-7.756 -8.576 0.851
-7.606 -4.574 -3.078
-7.439 -8.144 0.732
-13.568 -4.527 -9.441
-7.622 -8.554 0.956
-8.646 -6.580 -2.098
-9.392 -6.076 -3.290
-8.646 -6.580 -2.098
-9.266 -5.984 -3.256
-10.692 -4.982 -5.837
-9.078 -8.180 -0.883
-5.708 -5.254 -0.424
-9.268 -5.983 -3.259
-9.078 -8.180 -0.883
-4.923 -4.860 -0.032
-7.536 -7.800 0.294
-14.570 -8.030 -6.542
-13.319 -7.845 -5.642
-7.583 -8.519 0.969
-8.010 -8.522 0.542
-8.010 -8.510 0.531
-8.561 -6.591 -2.000
-9.089 -8.177 -0.897
-9.089 -8.177 -0.897
-9.217 -5.994 -3.196
-5.587 -6.002 0.447
-14.768 -4.328 -10.915
-5.023 -5.419 0.427
-8.421 -6.715 -1.710
-14.497 -6.661 -7.956
-18.175 -8.300 -9.888
-5.910 -6.010 0.104
-8.162 -6.804 -1.337
-9.297 -3.798 -5.591
-5.587 -6.002 0.447
-15.010 -8.700 -6.341
-5.024 -5.418 0.426
-5.024 -5.418 0.426
-8.675 -6.512 -2.137
-9.090 -5.992 -3.073
-10.116 -5.454 -5.005
-8.047 -6.260 -1.764
-7.531 -7.802 0.300
-9.079 -8.178 -0.886
-5.138 -5.820 0.715
-4.338 -4.896 0.590
-4.338 -4.895 0.588
-8.437 -6.723 -1.712
-9.294 -7.721 -1.603
-7.466 -6.732 -0.714
-9.439 -6.306 -3.118
-7.970 -8.310 0.359
-14.732 -6.605 -8.241
-16.083 -8.074 -8.048
-4.399 -4.870 0.502
-7.953 -8.285 0.364
-7.949 -8.332 0.411
-16.123 -8.579 -8.015
-8.010 -8.491 0.511
-7.617 -4.572 -3.092
-8.015 -8.510 0.526
-5.045 -5.416 0.402
-8.332 -6.200 -2.158
-5.114 -5.822 0.741
-9.415 -6.078 -3.310
-9.226 -5.993 -3.206
-16.273 -8.557 -8.184
-7.749 -8.486 0.768
-4.965 -5.363 0.430
-8.356 -7.935 -0.393
-7.749 -8.486 0.768
-7.852 -8.087 0.263
-7.553 -7.793 0.270
-8.310 -6.192 -2.176
-13.465 -7.193 -6.375
-7.516 -4.595 -2.968
-5.036 -5.704 0.701
-5.589 -6.002 0.446
-4.833 -5.383 0.581
-8.592 -6.556 -2.037
-5.038 -5.701 0.694
-5.912 -6.010 0.103
-7.004 -7.853 0.879
-5.624 -6.479 0.848
-5.478 -6.326 0.849
-5.732 -6.335 0.609
-5.478 -6.326 0.849
-5.624 -6.479 0.848
-5.732 -6.335 0.609
-5.732 -6.335 0.609
-6.676 -6.217 -0.432
-5.624 -6.479 0.848
-5.821 -6.570 0.751
-6.416 -5.911 -0.532
-5.821 -6.570 0.751
-5.142 -5.593 0.467
-6.676 -6.219 -0.431
-6.676 -6.219 -0.431
-5.142 -5.593 0.467
-5.821 -6.570 0.751
-5.821 -6.570 0.751
-5.142 -5.593 0.467
-5.821 -6.570 0.751
-5.732 -6.335 0.609
-5.821 -6.570 0.751
-5.478 -6.326 0.849
-5.142 -5.593 0.467
-5.142 -5.593 0.467
-5.624 -6.479 0.848
-5.732 -6.335 0.609
-6.672 -6.233 -0.412
-5.142 -5.593 0.467
-5.478 -6.326 0.849
-5.732 -6.335 0.609
-5.142 -5.593 0.467
-5.142 -5.593 0.467
-5.142 -5.593 0.467
-4.682 -5.236 0.543
-6.672 -6.233 -0.412
-6.672 -6.233 -0.412
-5.798 -6.316 0.523
-5.142 -5.593 0.467
-5.821 -6.569 0.751
-6.918 -6.220 -0.670
-6.918 -6.220 -0.670
-5.142 -5.593 0.468
-9.149 -4.936 -4.186
-6.839 -6.218 -0.595
-7.020 -6.187 -0.806
-5.142 -5.593 0.468
-6.916 -6.221 -0.667
-5.781 -6.297 0.522
-4.815 -5.015 0.223
-6.672 -6.234 -0.411
-5.142 -5.593 0.468
-6.670 -6.234 -0.409
-6.415 -5.912 -0.530
-6.846 -6.216 -0.604
-6.846 -6.216 -0.604
-6.846 -6.216 -0.604
-5.478 -6.326 0.849
-6.673 -6.234 -0.412
-7.021 -6.188 -0.807
-6.673 -6.234 -0.412
-5.478 -6.326 0.849
-5.478 -6.326 0.849
-5.732 -6.335 0.609
-6.661 -6.244 -0.390
-5.624 -6.479 0.848
-5.624 -6.479 0.848
-5.597 -6.336 0.748
-7.021 -6.188 -0.806
-5.821 -6.570 0.752
-5.732 -6.335 0.610
-6.673 -6.234 -0.412
-5.732 -6.335 0.609
-5.478 -6.326 0.849
-5.624 -6.479 0.848
-5.142 -5.593 0.467
-5.624 -6.479 0.848
-5.142 -5.593 0.468
-5.142 -5.593 0.467
-5.142 -5.593 0.467
-5.142 -5.593 0.467
-5.142 -5.593 0.467
-6.670 -6.234 -0.409
-5.478 -6.326 0.849
-5.821 -6.570 0.752
-5.478 -6.326 0.849
-5.142 -5.593 0.468
-5.821 -6.570 0.752
-7.021 -6.188 -0.806
-5.142 -5.593 0.468
-5.821 -6.570 0.752
-6.918 -6.220 -0.670
-5.142 -5.593 0.468
-5.142 -5.593 0.468
-6.670 -6.234 -0.409
-6.916 -6.221 -0.667
-5.478 -6.326 0.850
-5.142 -5.593 0.468
-6.916 -6.221 -0.667
-5.142 -5.593 0.468
-5.142 -5.593 0.468
-6.916 -6.221 -0.667
-7.020 -6.187 -0.805
-5.821 -6.570 0.752
-6.918 -6.220 -0.670
-6.918 -6.220 -0.670
-5.597 -6.336 0.748
-5.821 -6.570 0.752
-6.918 -6.220 -0.670
-6.673 -6.234 -0.412
-6.592 -6.260 -0.303
-6.917 -6.220 -0.669
-7.021 -6.188 -0.806
-7.021 -6.188 -0.806
-5.821 -6.570 0.752
-5.462 -6.354 0.895
-5.825 -6.579 0.760
-5.140 -5.594 0.470
-5.666 -6.488 0.816
-5.768 -6.319 0.559
-7.020 -6.189 -0.805
-5.666 -6.488 0.816
-6.918 -6.221 -0.670
-6.918 -6.221 -0.670
-6.918 -6.221 -0.670
-6.918 -6.221 -0.670
-8.316 -8.131 -0.167
-6.919 -6.220 -0.671
-6.919 -6.220 -0.671
-7.351 -3.322 -4.065
-6.919 -6.220 -0.671
-5.667 -6.488 0.813
-5.667 -6.488 0.813
-5.818 -6.570 0.755
-9.745 -5.518 -4.568
-7.020 -6.188 -0.805
-6.499 -5.888 -0.730
-5.142 -5.593 0.467
-5.751 -6.202 0.292
-5.733 -6.333 0.606
-5.753 -6.202 0.290
-7.021 -6.188 -0.806
-5.818 -6.571 0.755
-5.841 -6.593 0.759
-5.809 -6.573 0.766
-12.455 -4.921 -7.922
-6.675 -6.232 -0.415
-5.490 -6.328 0.838
-5.673 -6.486 0.806
-5.849 -6.562 0.714
-6.921 -6.218 -0.675
-7.094 -3.374 -3.761
-6.921 -6.218 -0.675
-7.334 -5.429 -1.905
-5.773 -6.435 0.668
-5.629 -6.332 0.712
-6.917 -6.221 -0.669
-5.768 -6.319 0.559
-5.281 -5.529 0.278
-6.490 -5.898 -0.716
-5.582 -6.351 0.778
-7.249 -5.464 -1.787
-7.565 -3.324 -4.280
-7.019 -6.189 -0.804
-5.473 -6.326 0.854
-10.003 -5.469 -4.878
-5.473 -6.326 0.854
-13.482 -4.557 -9.323
-13.482 -4.557 -9.323
-5.809 -6.556 0.743
-9.290 -5.581 -4.039
-6.147 -5.108 -1.028
-6.594 -6.257 -0.309
-5.912 -6.539 0.625
-16.050 -8.079 -8.012
-7.005 -5.994 -0.983
-5.826 -6.578 0.758
-5.810 -6.572 0.765
-5.582 -6.339 0.767
-5.752 -6.202 0.291
-6.413 -5.912 -0.528
-7.567 -3.324 -4.282
-13.014 -5.110 -8.387
-13.152 -5.085 -8.549
-12.870 -5.116 -8.236
-7.234 -6.121 -1.086
-13.149 -5.086 -8.545
-20.314 -4.791 -15.939
-6.911 -6.216 -0.667
-15.405 -8.167 -7.286
-16.097 -8.074 -8.062
-6.916 -6.217 -0.671
-15.389 -8.156 -7.213
-6.625 -5.897 -0.756
-7.080 -5.995 -1.056
-5.204 -5.601 0.412
-6.677 -6.218 -0.432
-13.527 -4.541 -9.387
-6.727 -6.215 -0.485
-7.014 -6.182 -0.805
-9.328 -5.570 -4.090
-6.046 -5.098 -0.937
-7.013 -5.997 -0.987
-6.909 -6.216 -0.665
-15.554 -8.139 -7.444
-11.590 -4.827 -6.858
-6.909 -6.220 -0.662
-15.631 -8.107 -7.561
-5.750 -6.203 0.295
-15.982 -8.067 -7.893
-6.667 -5.969 -0.855
-12.496 -4.908 -7.979
-5.750 -6.204 0.297
-6.941 -5.975 -0.936
-5.842 -6.593 0.758
-13.218 -7.841 -5.549
-5.705 -6.602 0.898
-6.909 -6.219 -0.662
-5.512 -6.335 0.824
-5.841 -6.593 0.759
-6.909 -6.219 -0.662
-15.890 -8.605 -7.304
-6.159 -5.112 -1.035
-10.037 -5.458 -4.924
-5.139 -5.596 0.474
-5.671 -6.490 0.812
-5.139 -5.596 0.473
-5.797 -6.206 0.254
-5.749 -6.204 0.296
-16.066 -8.077 -8.029
-13.522 -4.543 -9.380
-7.370 -3.322 -4.087
-5.173 -5.630 0.340
-15.373 -8.174 -7.250
-5.159 -5.634 0.357
-6.598 -5.897 -0.730
-6.908 -6.216 -0.664
-9.330 -5.570 -4.092
-20.776 -4.474 -16.523
-6.339 -5.858 -0.580
-16.065 -8.077 -8.029
-7.076 -3.371 -3.746
-6.479 -5.909 -0.700
-15.390 -8.158 -7.212
-8.046 -8.489 0.474
-13.136 -7.848 -5.473
-12.496 -4.908 -7.978
-5.629 -6.331 0.711
-7.008 -5.993 -0.986
-8.058 -4.454 -3.622
-15.889 -8.605 -7.303
-5.223 -5.633 0.287
-5.630 -6.331 0.710
-13.660 -4.504 -9.557
-14.680 -6.611 -8.183
-5.628 -6.332 0.713
-14.719 -8.187 -6.512
-5.706 -6.602 0.897
-6.056 -5.101 -0.944
-5.830 -6.588 0.761
-4.970 -5.641 0.688
-15.889 -8.605 -7.303
-14.399 -6.660 -7.861
-13.214 -7.841 -5.545
-6.407 -5.912 -0.522
-5.200 -5.602 0.417
-12.496 -4.908 -7.978
-9.867 -5.486 -4.724
-9.867 -5.486 -4.724
-6.911 -6.217 -0.667
-16.649 -4.843 -12.070
-14.745 -6.604 -8.254
-14.400 -6.660 -7.862
-5.223 -5.634 0.288
-6.464 -6.183 -0.283
-5.201 -5.602 0.417
-10.037 -5.459 -4.924
-12.496 -4.908 -7.978
-9.867 -5.486 -4.724
-5.628 -6.332 0.713
-5.138 -5.596 0.474
-6.480 -5.910 -0.701
-10.035 -5.459 -4.921
-5.513 -6.335 0.823
-7.008 -5.993 -0.986
-10.033 -5.459 -4.919
-6.381 -5.875 -0.616
-9.742 -5.515 -4.570
-5.560 -6.239 0.572
-6.081 -5.085 -0.984
-10.034 -5.459 -4.920
-13.139 -7.822 -5.502
-6.581 -6.259 -0.294
-6.661 -6.233 -0.401
-5.628 -6.482 0.847
-6.938 -5.975 -0.934
-6.616 -5.890 -0.753
-12.497 -4.907 -7.980
-12.893 -7.597 -5.574
-12.497 -4.907 -7.980
-16.266 -8.594 -8.142
-7.080 -5.995 -1.056
-5.208 -5.600 0.408
-5.635 -6.479 0.837
-5.779 -6.318 0.547
-5.869 -6.579 0.712
-17.601 -7.817 -9.765
-17.893 -7.811 -10.133
-16.785 -8.507 -8.751
-17.893 -7.812 -10.132
-17.893 -7.812 -10.132
-17.893 -7.812 -10.132
-17.893 -7.812 -10.132
-18.175 -8.301 -9.886
-18.175 -8.301 -9.886
-17.893 -7.812 -10.132
-18.175 -8.301 -9.886
-18.175 -8.301 -9.886
-17.506 -8.424 -9.103
-17.838 -7.812 -10.076
-11.882 -8.017 -4.082
-17.508 -8.423 -9.106
-17.508 -8.423 -9.106
-17.508 -8.423 -9.106
-16.663 -7.966 -8.681
-17.508 -8.423 -9.106
-17.551 -7.822 -9.710
-17.551 -7.822 -9.710
-17.048 -8.444 -8.632
-16.610 -8.500 -8.578
-8.390 -8.532 0.173
-17.086 -7.923 -9.196
-8.390 -8.532 0.173
-18.128 -8.304 -9.837
-16.182 -7.663 -8.529
-8.025 -7.838 -0.157
-17.551 -7.822 -9.710
-18.128 -8.304 -9.837
-16.662 -7.966 -8.679
-17.212 -8.067 -9.290
-18.175 -8.301 -9.886
-18.175 -8.301 -9.886
-18.175 -8.301 -9.886
-18.175 -8.301 -9.886
-18.175 -8.301 -9.886
-18.175 -8.301 -9.886
-16.661 -7.966 -8.679
-17.093 -7.922 -9.204
-18.128 -8.304 -9.837
-8.295 -8.502 0.236
-17.093 -7.922 -9.204
-17.506 -8.424 -9.103
-17.093 -7.922 -9.204
-17.506 -8.424 -9.103
-8.221 -8.232 0.042
-18.128 -8.304 -9.837
-8.372 -7.941 -0.403
-8.455 -8.763 0.339
-8.025 -7.838 -0.157
-8.295 -8.502 0.237
-17.504 -8.424 -9.101
-16.655 -8.495 -8.629
-18.175 -8.301 -9.886
-17.597 -7.818 -9.760
-17.087 -7.923 -9.196
-8.294 -8.502 0.238
-17.500 -8.425 -9.096
-17.500 -8.425 -9.096
-16.651 -8.496 -8.624
-8.293 -8.503 0.239
-8.293 -8.503 0.239
-8.293 -8.503 0.239
-17.551 -7.822 -9.710
-8.371 -7.941 -0.402
-17.499 -8.425 -9.095
-8.293 -8.503 0.239
-17.046 -8.444 -8.629
-17.597 -7.818 -9.760
-8.294 -8.503 0.238
-8.294 -8.503 0.238
-8.294 -8.503 0.238
-17.087 -7.923 -9.196
-16.652 -8.496 -8.625
-16.586 -8.506 -8.550
-16.651 -8.496 -8.624
-17.081 -7.924 -9.190
-16.651 -8.496 -8.624
-9.077 -8.191 -0.871
-8.447 -7.930 -0.489
-17.511 -8.423 -9.109
-8.048 -8.015 -0.001
-8.395 -8.531 0.167
-18.144 -8.301 -9.856
-17.063 -8.354 -8.999
-16.680 -8.491 -8.658
-8.387 -7.933 -0.426
-18.144 -8.301 -9.856
-18.144 -8.301 -9.856
-16.680 -8.491 -8.658
-16.291 -8.559 -8.199
-16.291 -8.559 -8.199
-16.291 -8.559 -8.199
-16.320 -8.550 -8.235
-8.225 -8.232 0.038
-8.225 -8.232 0.038
-8.225 -8.232 0.038
-16.573 -8.494 -8.549
-17.605 -8.424 -9.204
-17.863 -8.333 -9.543
-17.556 -8.436 -9.139
-16.924 -8.374 -8.836
-16.544 -8.500 -8.514
-16.544 -8.500 -8.514
-16.478 -8.510 -8.439
-16.543 -8.500 -8.513
-17.909 -8.331 -9.590
-8.021 -7.998 0.009
-8.372 -7.940 -0.404
-14.336 -7.798 -6.742
-8.374 -7.939 -0.406
-17.863 -8.333 -9.543
-16.544 -8.499 -8.514
-16.849 -7.981 -8.851
-8.001 -7.840 -0.132
-16.544 -8.499 -8.514
-17.029 -8.926 -8.150
-11.914 -8.000 -4.127
-16.106 -7.657 -8.460
-16.544 -8.499 -8.514
-8.059 -7.963 -0.065
-16.544 -8.499 -8.514
-16.849 -7.981 -8.851
-17.172 -7.959 -9.257
-8.187 -8.245 0.090
-8.372 -7.940 -0.405
-17.863 -8.333 -9.543
-16.544 -8.499 -8.514
-16.544 -8.499 -8.514
-17.909 -8.331 -9.590
-7.524 -7.432 -0.067
-16.852 -8.443 -8.436
-8.373 -7.939 -0.406
-8.373 -7.939 -0.406
-16.263 -8.562 -8.168
-16.977 -8.454 -8.550
-9.159 -8.173 -0.972
-16.543 -8.499 -8.513
-16.478 -8.510 -8.439
-17.028 -8.926 -8.149
-17.028 -8.926 -8.149
-16.314 -8.597 -8.187
-17.028 -8.926 -8.149
-16.263 -8.562 -8.168
-16.263 -8.562 -8.168
-9.162 -8.180 -0.969
-8.021 -7.998 0.009
-16.256 -8.567 -8.158
-7.387 -6.522 -0.840
-17.031 -8.925 -8.153
-16.266 -8.562 -8.171
-7.392 -6.740 -0.623
-14.915 -8.718 -6.228
-16.266 -8.562 -8.171
-16.549 -8.498 -8.520
-16.549 -8.498 -8.520
-7.392 -6.740 -0.623
-16.268 -8.561 -8.175
-16.268 -8.561 -8.175
-16.268 -8.561 -8.175
-16.268 -8.561 -8.175
-8.058 -7.963 -0.064
-16.812 -8.118 -8.828
-16.265 -8.562 -8.170
-16.265 -8.562 -8.170
-7.387 -6.522 -0.840
-16.855 -8.443 -8.440
-16.269 -8.561 -8.175
-16.269 -8.561 -8.175
-16.269 -8.561 -8.175
-6.726 -6.542 -0.156
-7.625 -8.586 0.990
-16.269 -8.561 -8.175
-16.269 -8.561 -8.175
-16.269 -8.561 -8.175
-14.898 -8.716 -6.213
-16.269 -8.561 -8.175
-7.392 -6.740 -0.623
-16.269 -8.561 -8.175
-16.269 -8.561 -8.175
-7.568 -8.526 0.990
-16.265 -8.565 -8.169
-16.269 -8.561 -8.175
-7.392 -6.740 -0.623
-17.032 -8.925 -8.153
-8.436 -7.935 -0.472
-7.392 -6.740 -0.623
-16.269 -8.561 -8.175
-7.568 -8.526 0.990
-16.553 -8.495 -8.526