-7.694 -7.867 0.249
-8.037 -8.322 0.207
-7.868 -7.979 0.190
-8.773 -8.719 0.037
-8.022 -7.970 0.013
-9.561 -9.525 0.022
-7.497 -7.882 0.456
-10.816 -9.788 -0.966
-9.255 -9.510 0.299
-7.751 -7.962 0.277
-7.569 -7.869 0.376
-7.877 -7.969 0.168
-7.627 -7.954 0.380
-7.187 -8.275 1.158
-8.096 -8.080 0.060
-8.663 -8.652 0.073
-7.750 -7.962 0.278
-8.912 -8.965 0.135
-8.558 -8.724 0.254
-7.420 -7.626 0.296
-8.020 -7.968 0.012
-8.149 -9.338 1.267
-7.957 -8.590 0.649
-8.563 -8.767 0.210
-7.568 -7.864 0.372
-8.558 -8.724 0.255
-8.770 -8.650 -0.031
-7.895 -8.490 0.636
-8.558 -8.726 0.256
-8.558 -8.725 0.255
-7.569 -7.870 0.376
-7.614 -7.967 0.434
-9.524 -9.486 0.009
-7.573 -7.741 0.262
-8.125 -8.825 0.761
-9.254 -9.509 0.299
-9.399 -9.305 -0.071
-8.663 -8.652 0.073
-8.435 -8.724 0.378
-8.130 -8.377 0.287
-7.750 -7.961 0.278
-7.750 -7.962 0.279
-8.434 -8.726 0.380
-8.558 -8.724 0.254
-7.553 -7.870 0.394
-8.558 -8.725 0.256
-14.822 -15.108 0.363
-8.558 -8.724 0.254
-7.629 -7.740 0.205
-7.115 -7.722 0.637
-8.878 -9.212 0.343
-8.086 -8.145 0.107
-8.456 -8.755 0.299
-8.544 -9.188 0.713
-8.500 -8.406 -0.037
-7.940 -8.047 0.125
-7.603 -7.970 0.450
-8.246 -8.851 0.609
-7.242 -7.585 0.403
-8.558 -8.724 0.254
-7.750 -7.963 0.280
-8.410 -8.412 0.054
-8.912 -8.965 0.135
-8.352 -8.232 -0.047
-8.429 -8.389 0.026
-8.345 -8.229 -0.040
-7.254 -7.593 0.410
-9.508 -9.163 -0.309
-7.257 -7.586 0.394
-7.420 -7.624 0.294
-8.563 -8.767 0.211
-7.255 -7.578 0.407
-8.879 -9.175 0.275
-8.006 -8.344 0.246
-8.442 -8.727 0.374
-8.912 -8.965 0.135
-7.628 -7.751 0.212
-10.133 -9.422 -0.574
-8.008 -8.321 0.242
-7.991 -8.368 0.417
-8.058 -7.917 -0.068
-8.008 -8.312 0.231
-8.639 -8.362 -0.190
-10.133 -9.423 -0.574
-9.524 -9.485 0.009
-8.457 -8.757 0.301
-7.749 -7.967 0.282
-9.600 -9.401 -0.109
-7.998 -8.657 0.644
-8.352 -8.242 -0.039
-7.563 -7.751 0.278
-8.456 -8.751 0.294
-9.524 -9.485 0.009
-7.408 -7.584 0.240
-7.749 -7.964 0.281
-7.992 -8.368 0.417
-8.125 -8.826 0.762
-8.871 -9.120 0.236
-8.443 -8.726 0.372
-8.871 -9.126 0.238
-8.457 -8.741 0.273
-9.248 -9.509 0.305
-8.711 -9.096 0.286
-7.750 -7.963 0.280
-8.870 -9.134 0.245
-9.524 -9.485 0.009
-7.612 -7.968 0.436
-9.561 -9.525 0.023
-10.262 -9.423 -0.697
-7.749 -7.966 0.284
-8.541 -8.692 0.239
-8.094 -8.086 0.060
-10.106 -9.653 -0.368
-11.181 -10.950 -0.171
-9.524 -9.486 0.009
-7.612 -7.959 0.426
-8.912 -8.965 0.135
-9.561 -9.525 0.023
-8.086 -8.145 0.107
-9.524 -9.485 0.009
-8.005 -8.344 0.242
-8.008 -8.319 0.234
-9.561 -9.525 0.023
-9.634 -9.402 -0.143
-8.058 -7.916 -0.068
-9.550 -9.378 -0.102
-8.882 -8.650 -0.145
-8.882 -8.650 -0.145
-7.750 -7.964 0.281
-8.442 -8.725 0.371
-7.115 -7.722 0.637
-8.422 -8.743 0.396
-7.553 -7.868 0.393
-7.284 -7.782 0.531
-8.804 -9.098 0.307
-8.912 -8.965 0.135
-8.773 -8.719 0.037
-8.563 -8.767 0.209
-8.912 -8.965 0.135
-7.115 -7.721 0.637
-7.750 -7.961 0.277
-8.030 -7.922 -0.025
-8.539 -8.653 0.199
-7.972 -8.051 0.156
-8.441 -8.726 0.373
-7.953 -8.378 0.458
-8.020 -8.050 0.107
-7.568 -7.874 0.377
-7.165 -7.722 0.586
-7.572 -7.750 0.267
-10.727 -9.745 -0.895
-7.750 -7.963 0.280
-7.992 -8.367 0.416
-7.631 -7.738 0.201
-9.561 -9.525 0.022
-7.785 -7.965 0.246
-8.911 -9.225 0.321
-7.749 -7.964 0.282
-8.457 -8.755 0.299
-7.972 -8.051 0.155
-7.568 -7.871 0.378
-8.796 -8.767 -0.014
-8.442 -8.726 0.372
-7.956 -8.586 0.648
-7.956 -8.376 0.456
-7.242 -7.589 0.405
-7.668 -8.914 1.268
-8.458 -8.758 0.300
-8.246 -8.851 0.609
-8.871 -9.129 0.243
-7.750 -7.959 0.276
-7.871 -7.788 0.013
-9.524 -9.485 0.009
-8.500 -8.412 -0.033
-7.479 -7.832 0.424
-7.750 -7.962 0.279
-7.750 -7.965 0.281
-8.537 -8.652 0.199
-6.911 -7.368 0.479
-8.458 -8.756 0.299
-7.541 -7.763 0.303
-8.912 -8.965 0.135
-9.599 -9.406 -0.106
-7.927 -8.407 0.506
-8.872 -9.124 0.239
-8.563 -8.766 0.209
-6.836 -8.062 1.279
-10.101 -9.429 -0.593
-7.750 -7.959 0.276
-8.346 -8.233 -0.040
-9.562 -9.525 0.022
-8.165 -8.617 0.524
-7.750 -7.961 0.278
-8.984 -8.651 -0.291
-7.921 -8.122 0.261
-11.053 -11.155 -0.183
-6.575 -7.720 1.222
-9.256 -8.568 -0.576
-9.597 -9.407 -0.102
-7.115 -7.515 0.408
-8.058 -7.916 -0.068
-8.626 -8.809 0.307
-9.600 -9.401 -0.110
-7.973 -8.506 0.617
-9.561 -9.525 0.022
-7.750 -7.966 0.281
-8.743 -8.594 -0.205
-8.773 -8.718 0.035
-14.873 -15.197 0.410
-11.185 -10.936 -0.172
-7.966 -7.923 0.039
-8.126 -8.386 0.292
-8.743 -8.594 -0.206
-7.655 -7.857 0.216
-8.500 -8.410 -0.034
-8.895 -9.202 0.333
-8.428 -8.790 0.366
-7.921 -8.123 0.262
-8.799 -8.973 0.253
-8.410 -8.412 0.054
-8.019 -8.050 0.109
-7.784 -7.967 0.249
-8.911 -8.964 0.135
-9.248 -9.509 0.305
-7.955 -8.376 0.456
-8.008 -8.316 0.233
-8.391 -8.234 -0.086
-7.955 -8.374 0.457
-9.250 -9.506 0.301
-8.538 -8.653 0.199
-7.293 -7.397 0.172
-7.951 -8.581 0.639
-8.489 -8.401 -0.034
-8.058 -7.917 -0.068
-7.611 -7.932 0.358
-8.870 -9.134 0.246
-7.971 -8.051 0.157
-7.490 -7.887 0.466
-8.005 -8.325 0.240
-8.794 -8.974 0.259
-7.465 -7.837 0.444
-8.426 -8.381 0.023
-8.441 -8.668 0.100
-7.744 -7.965 0.287
-8.428 -8.789 0.364
-7.226 -7.545 0.370
-7.574 -7.743 0.262
-7.694 -8.426 0.785
-7.550 -7.875 0.396
-7.751 -7.963 0.278
-8.442 -8.730 0.376
-8.563 -8.767 0.209
-7.899 -8.592 0.708
-8.442 -8.727 0.373
-7.184 -7.650 0.493
-8.459 -8.758 0.301
-7.575 -7.739 0.257
-7.781 -7.531 -0.186
-7.010 -7.578 0.594
-7.420 -7.623 0.293
-8.773 -8.719 0.038
-8.458 -8.757 0.300
-7.972 -8.051 0.155
-8.130 -8.377 0.286
-8.410 -8.441 0.090
-7.751 -7.962 0.279
-8.808 -9.099 0.249
-8.247 -8.851 0.609
-8.500 -8.411 -0.033
-8.345 -8.235 -0.038
-11.184 -10.942 -0.165
-15.044 -15.339 0.372
-9.608 -9.165 -0.425
-7.780 -7.531 -0.186
-9.524 -9.371 -0.094
-8.409 -8.412 0.054
-8.350 -8.594 0.336
-8.246 -8.851 0.609
-7.585 -7.895 0.406
-7.062 -7.206 0.118
-9.562 -9.525 0.022
-8.743 -8.594 -0.206
-8.345 -8.234 -0.038
-7.750 -7.963 0.279
-8.008 -8.314 0.232
-8.421 -8.359 0.020
-7.867 -8.017 0.230
-8.800 -8.972 0.252
-7.470 -7.524 0.133
-10.760 -9.752 -0.910
-7.750 -7.965 0.280
-9.524 -9.487 0.010
-11.101 -10.958 -0.064
-8.700 -9.842 1.019
-9.633 -9.399 -0.144
-7.992 -8.368 0.416
-8.419 -8.362 0.029
-9.249 -9.510 0.304
-8.440 -8.723 0.372
-7.952 -8.621 0.683
-8.872 -9.121 0.237
-11.186 -10.938 -0.172
-8.564 -9.122 0.567
-9.453 -9.424 0.017
-10.742 -10.413 -0.316
-7.166 -7.722 0.585
-8.044 -8.903 0.929
-7.716 -7.953 0.305
-8.510 -8.979 0.534
-8.627 -8.808 0.310
-8.345 -8.233 -0.039
-8.269 -8.364 0.173
-8.563 -8.767 0.209
-8.442 -8.726 0.373
-7.694 -8.429 0.788
-8.796 -8.768 -0.013
-7.628 -7.749 0.209
-7.750 -7.962 0.278
-15.076 -15.374 0.367
-10.874 -10.829 0.056
-10.991 -10.891 -0.095
-9.250 -9.517 0.310
-9.251 -9.510 0.303
-7.851 -7.938 0.146
-6.572 -7.835 1.340
-6.989 -7.313 0.343
-8.028 -9.846 1.744
-7.694 -8.428 0.787
-7.920 -8.121 0.266
-7.468 -7.843 0.437
-7.784 -7.966 0.249
-9.569 -9.073 -0.410
-9.524 -9.489 0.015
-8.008 -8.299 0.226
-8.345 -8.237 -0.037
-9.709 -9.239 -0.447
-10.811 -10.321 -0.424
-10.098 -9.428 -0.590
-8.799 -8.971 0.251
-6.947 -8.061 1.166
-7.750 -7.961 0.278
-7.750 -7.958 0.275
-8.799 -8.971 0.251
-6.284 -7.550 1.347
-9.737 -9.268 -0.443
-9.712 -9.228 -0.470
-7.010 -7.586 0.596
-8.799 -8.972 0.252
-8.008 -8.315 0.232
-7.785 -7.966 0.247
-7.630 -8.522 1.240
-7.694 -8.426 0.788
-11.186 -10.939 -0.171
-7.784 -7.966 0.247
-8.008 -8.316 0.238
-7.115 -7.722 0.638
-10.126 -9.423 -0.567
-8.454 -8.742 0.278
-7.780 -7.532 -0.185
-8.103 -8.369 0.318
-11.444 -11.809 -0.267
-7.008 -7.589 0.604
-8.085 -8.146 0.109
-8.743 -8.594 -0.205
-8.661 -9.172 0.532
-8.441 -8.723 0.371
-8.564 -9.116 0.560
-9.716 -9.188 -0.512
-10.133 -9.422 -0.575
-8.821 -9.157 0.365
-9.248 -9.508 0.304
-7.974 -7.924 0.032
-10.133 -9.423 -0.574
-7.750 -7.964 0.279
-7.115 -7.721 0.637
-8.563 -8.767 0.209
-8.346 -8.234 -0.039
-10.133 -9.423 -0.575
-7.694 -8.424 0.784
-9.524 -9.485 0.009
-8.881 -8.650 -0.145
-9.162 -10.363 1.287
-9.524 -9.485 0.009
-8.565 -9.121 0.568
-9.248 -9.509 0.305
-8.700 -9.842 1.019
-10.098 -9.429 -0.589
-10.879 -10.821 0.043
-8.799 -8.972 0.252
-8.799 -8.973 0.253
-10.811 -10.322 -0.424
-8.003 -8.269 0.231
-7.779 -7.971 0.249
-11.185 -10.946 -0.165
-7.972 -8.052 0.156
-8.417 -8.360 0.028
-7.985 -8.215 0.293
-7.779 -7.533 -0.186
-8.671 -8.639 -0.140
-7.998 -9.291 1.379
-10.988 -10.826 -0.098
-8.408 -8.418 0.059
-8.219 -8.595 0.361
-8.524 -9.807 1.191
-8.519 -8.988 0.533
-8.342 -8.249 -0.026
-9.462 -9.248 -0.207
-11.186 -10.944 -0.166
-7.562 -7.469 -0.028
-7.972 -8.051 0.156
-8.799 -8.972 0.252
-7.955 -8.380 0.458
-8.799 -8.971 0.252
-12.986 -13.257 0.287
-7.258 -7.585 0.392
-7.750 -7.964 0.281
-9.607 -9.167 -0.424
-7.750 -7.962 0.279
-14.519 -14.996 0.554
-10.786 -10.539 -0.306
-10.133 -9.423 -0.574
-8.908 -9.225 0.325
-7.968 -7.924 0.038
-7.702 -7.908 0.287
-8.341 -8.273 0.015
-11.166 -10.903 -0.187
-7.703 -7.979 0.353
-7.163 -7.513 0.379
-8.518 -8.984 0.530
-6.796 -7.994 1.281
-7.014 -7.578 0.591
-9.463 -9.414 -0.022
-9.524 -9.486 0.012
-8.878 -9.138 0.287
-7.972 -8.051 0.156
-7.258 -7.581 0.386
-7.938 -8.312 0.463
-7.972 -8.051 0.156
-8.799 -8.972 0.252
-8.564 -8.767 0.210
-8.799 -8.971 0.251
-8.459 -8.757 0.298
-11.128 -10.712 -0.420
-12.625 -12.829 -0.172
-8.166 -8.955 0.730
-11.092 -10.635 -0.452
-7.520 -7.700 0.266
-11.173 -10.931 -0.161
-8.008 -8.311 0.229
-8.912 -8.965 0.135
-7.750 -7.962 0.278
-7.461 -7.841 0.447
-8.571 -8.841 0.322
-8.452 -8.669 0.088
-7.781 -7.533 -0.186
-8.799 -8.967 0.246
-8.424 -8.702 0.370
-7.628 -7.748 0.211
-9.633 -9.402 -0.142
-8.907 -9.225 0.326
-8.345 -8.230 -0.043
-8.655 -8.377 -0.198
-7.215 -7.246 0.102
-9.765 -9.313 -0.380
-8.440 -8.725 0.373
-8.808 -9.099 0.249
-7.693 -8.426 0.785
-10.133 -9.423 -0.575
-8.159 -8.422 0.283
-7.967 -7.924 0.039
-8.459 -8.757 0.300
-7.010 -7.593 0.599
-8.019 -8.051 0.109
-8.086 -8.146 0.107
-9.679 -9.301 -0.345
-7.676 -7.977 0.357
-6.631 -7.464 0.907
-8.006 -8.311 0.235
-9.515 -9.488 0.020
-7.778 -7.966 0.254
-7.987 -8.370 0.424
-8.794 -8.974 0.261
-7.948 -8.364 0.459
-9.567 -9.075 -0.407
-10.810 -10.317 -0.427
-7.929 -8.016 0.166
-9.242 -9.512 0.314
-8.083 -8.145 0.109
-7.508 -7.816 0.381
-8.336 -8.255 -0.014
-8.476 -9.035 0.630
-8.437 -8.728 0.379
-8.744 -8.594 -0.206
-8.700 -9.842 1.020
-8.188 -8.003 -0.142
-6.807 -7.996 1.271
-8.489 -8.387 -0.042
-11.127 -10.711 -0.423
-7.120 -7.634 0.599
-7.750 -7.959 0.276
-11.127 -10.713 -0.420
-8.058 -7.916 -0.068
-7.972 -8.051 0.155
-7.867 -8.017 0.228
-7.574 -8.918 1.415
-7.657 -7.740 0.176
-8.335 -8.227 -0.040
-8.563 -9.137 0.583
-8.009 -8.314 0.230
-8.541 -8.654 0.197
-8.800 -8.971 0.251
-8.800 -8.971 0.251
-8.086 -8.145 0.107
-9.562 -9.021 -0.444
-7.928 -8.120 0.185
-10.199 -9.725 -0.380
-10.132 -9.423 -0.574
-7.487 -8.576 1.152
-6.983 -7.045 0.141
-7.953 -8.261 0.359
-7.438 -8.706 1.335
-9.216 -8.826 -0.466
-8.028 -9.847 1.744
-7.244 -7.555 0.361
-7.000 -7.793 0.718
-8.425 -8.397 0.029
-6.807 -7.992 1.267
-9.524 -9.485 0.009
-7.450 -7.777 0.384
-8.021 -8.050 0.106
-11.079 -10.610 -0.456
-7.964 -7.922 0.039
-7.640 -7.974 0.398
-8.136 -8.124 0.068
-7.918 -9.017 1.143
-8.799 -8.971 0.252
-8.690 -8.715 0.138
-7.466 -7.841 0.445
-11.221 -10.601 -0.549
-8.564 -8.767 0.208
-8.345 -8.234 -0.039
-9.422 -9.188 -0.236
-7.503 -7.831 0.397
-10.877 -10.813 0.036
-10.863 -11.060 0.239
-10.531 -9.944 -0.565
-14.721 -14.974 0.261
-8.344 -8.237 -0.037
-7.965 -7.922 0.039
-7.171 -7.444 0.294
-14.594 -14.930 0.348
-8.000 -8.333 0.243
-9.490 -9.464 0.012
-7.788 -7.797 0.073
-11.489 -11.245 -0.339
-7.884 -8.479 0.541
-8.524 -9.119 0.635
-7.187 -8.271 1.153
-11.180 -10.939 -0.164
-6.907 -7.979 1.014
-8.157 -9.370 1.278
-8.246 -8.853 0.609
-7.482 -7.714 0.300
-8.020 -8.050 0.107
-7.254 -7.589 0.406
-7.967 -7.924 0.039
-9.808 -9.619 -0.157
-9.577 -9.457 -0.026
-9.516 -9.509 0.027
-7.972 -8.051 0.156
-7.340 -7.704 0.438
-11.103 -10.709 -0.390
-7.765 -8.268 0.546
-10.789 -10.346 -0.378
-7.952 -8.265 0.364
-8.745 -9.088 0.313
-9.524 -9.485 0.009
-7.992 -8.369 0.417
-8.440 -8.725 0.374
-10.790 -10.336 -0.389
-8.512 -8.974 0.521
-15.625 -15.348 -0.257
-10.790 -10.226 -0.505
-10.133 -9.423 -0.575
-8.506 -9.147 0.638
-7.955 -8.377 0.457
-7.956 -8.593 0.658
-8.877 -9.212 0.343
-10.812 -10.327 -0.419
-10.484 -9.952 -0.527
-11.077 -10.689 -0.398
-7.696 -7.985 0.340
-8.243 -8.560 0.432
-8.563 -8.767 0.210
-7.954 -8.376 0.456
-10.811 -10.325 -0.421
-9.524 -9.486 0.009
-7.116 -7.722 0.637
-8.877 -9.211 0.341
-6.822 -8.051 1.282
-10.338 -9.947 -0.407
-8.508 -8.715 0.238
-7.083 -8.265 1.221
-8.085 -8.145 0.106
-7.438 -7.819 0.449
-7.009 -7.589 0.598
-9.858 -9.664 -0.104
-7.965 -7.923 0.040
-7.174 -7.723 0.577
-11.245 -10.603 -0.570
-14.279 -14.742 0.498
-11.172 -10.921 -0.172
-7.594 -7.904 0.394
-7.481 -7.829 0.426
-7.780 -7.532 -0.186
-8.656 -8.849 0.214
-8.461 -8.635 0.257
-7.963 -7.921 0.041
-7.799 -7.531 -0.206
-14.254 -14.240 0.171
-8.322 -8.177 -0.074
-7.258 -7.585 0.406
-9.757 -9.194 -0.540
-10.823 -10.345 -0.415
-7.313 -7.586 0.349
-8.440 -8.724 0.374
-10.669 -10.743 0.161
-11.359 -11.229 -0.099
-8.494 -10.005 1.563
-11.185 -10.945 -0.164
-8.461 -8.635 0.256
-8.527 -9.119 0.633
-6.836 -8.052 1.268
-7.963 -7.922 0.041
-7.121 -7.429 0.371
-7.462 -7.771 0.376
-7.437 -8.709 1.341
-14.642 -15.568 0.990
-11.481 -11.383 -0.010
-11.222 -10.619 -0.532
-12.871 -13.429 -0.276
-11.222 -10.617 -0.535
-10.910 -10.538 -0.521
-11.180 -10.940 -0.164
-11.180 -10.938 -0.165
-11.222 -10.618 -0.533
-11.023 -10.566 -0.429
-10.994 -10.493 -0.532
-11.180 -10.937 -0.166
-10.787 -10.324 -0.407
-11.481 -11.385 -0.009
-11.180 -10.938 -0.165
-11.180 -10.940 -0.164
-11.187 -10.938 -0.172
-10.789 -10.333 -0.392
-10.968 -10.492 -0.554
-11.222 -10.633 -0.521
-15.062 -15.370 0.384
-11.104 -10.713 -0.387
-9.609 -9.401 -0.119
-11.066 -10.637 -0.449
-14.164 -14.223 -0.016
-10.525 -10.371 -0.077
-10.924 -10.563 -0.561
-11.028 -10.569 -0.461
-15.638 -15.194 -0.391
-11.480 -11.381 -0.013
-11.032 -10.627 -0.438
-11.472 -11.377 0.001
-11.103 -10.710 -0.385
-13.713 -13.676 0.036
-10.789 -10.329 -0.398
-11.368 -11.221 -0.053
-11.480 -11.382 -0.013
-11.185 -10.630 -0.484
-10.880 -10.665 -0.134
-11.180 -10.939 -0.165
-10.788 -10.348 -0.382
-11.180 -10.938 -0.165
-11.187 -10.938 -0.172
-11.222 -10.622 -0.530
-11.220 -10.654 -0.501
-15.638 -15.110 -0.465
-10.790 -10.337 -0.388
-10.789 -10.344 -0.379
-14.250 -14.240 0.148
-15.066 -15.353 0.369
-11.180 -10.938 -0.165
-11.180 -10.938 -0.166
-15.627 -15.109 -0.455
-15.627 -15.108 -0.457
-11.185 -10.631 -0.484
-10.788 -10.324 -0.400
-10.796 -9.841 -0.880
-14.642 -15.568 0.989
-11.180 -10.939 -0.165
-9.757 -9.194 -0.538
-11.180 -10.938 -0.165
-15.638 -15.211 -0.376
-11.186 -10.943 -0.168
-10.126 -9.423 -0.568
-9.609 -9.401 -0.119
-10.789 -10.333 -0.392
-11.180 -10.938 -0.165
-11.281 -11.146 -0.050
-10.880 -10.665 -0.134
-11.180 -10.939 -0.163
-11.180 -10.938 -0.166
-9.633 -9.096 -0.483
-14.878 -15.199 0.411
-15.068 -15.371 0.376
-11.054 -11.363 0.398
-10.910 -10.534 -0.522
-9.630 -9.076 -0.496
-14.876 -15.199 0.413
-11.179 -10.938 -0.162
-11.179 -10.939 -0.163
-11.179 -10.938 -0.163
-11.179 -10.939 -0.163
-9.756 -9.205 -0.528
-15.637 -15.212 -0.376
-9.606 -9.401 -0.116
-15.064 -15.370 0.381
-11.178 -10.939 -0.162
-11.178 -10.936 -0.165
-11.178 -10.939 -0.162
-11.178 -10.938 -0.163
-11.178 -10.938 -0.162
-10.787 -10.345 -0.378
-11.178 -10.941 -0.160
-11.426 -11.329 0.000
-11.178 -10.939 -0.162
-10.787 -10.332 -0.389
-11.178 -10.939 -0.162
-11.178 -10.938 -0.162
-9.455 -8.942 -0.432
-11.184 -10.937 -0.170
-9.756 -9.199 -0.530
-11.178 -10.939 -0.162
-11.178 -10.939 -0.162
-10.787 -10.333 -0.390
-11.452 -11.382 0.018
-14.876 -15.207 0.423
-10.795 -9.841 -0.878
-9.600 -9.402 -0.109
-15.068 -15.371 0.377
-10.910 -10.538 -0.522
-11.221 -10.618 -0.533
-11.102 -10.714 -0.385
-15.633 -15.108 -0.467
-10.125 -9.424 -0.565
-11.178 -10.937 -0.164
-11.178 -10.940 -0.161
-10.125 -9.424 -0.566
-9.607 -9.164 -0.425
-14.877 -15.199 0.413
-10.787 -10.333 -0.392
-10.787 -10.342 -0.381
-10.775 -10.292 -0.417
-10.125 -9.424 -0.565
-10.096 -9.428 -0.588
-14.877 -15.199 0.413
-10.787 -10.345 -0.379
-10.989 -10.479 -0.489
-9.606 -9.402 -0.116
-9.633 -9.089 -0.490
-10.787 -10.343 -0.381
-9.633 -9.090 -0.487
-10.787 -10.329 -0.391
-9.633 -9.099 -0.478
-11.178 -10.940 -0.161
-9.633 -9.103 -0.473
-11.178 -10.939 -0.162
-10.873 -10.822 0.054
-11.184 -10.940 -0.169
-11.178 -10.939 -0.162
-11.102 -10.711 -0.388
-11.178 -10.940 -0.162
-10.125 -9.422 -0.566
-11.221 -10.637 -0.515
-11.079 -10.713 -0.423
-10.125 -9.423 -0.565
-15.637 -15.203 -0.381
-10.483 -9.954 -0.525
-9.633 -9.089 -0.489
-11.085 -10.681 -0.401
-9.245 -8.906 -0.280
-11.102 -10.712 -0.387
-9.633 -9.088 -0.488
-10.786 -10.329 -0.394
-11.048 -11.349 0.388
-9.633 -9.096 -0.482
-10.787 -10.339 -0.384
-11.178 -10.937 -0.161
-11.178 -10.939 -0.162
-11.221 -10.621 -0.530
-11.177 -10.940 -0.162
-10.844 -11.059 0.257
-9.607 -9.166 -0.423
-10.786 -10.332 -0.390
-11.479 -11.389 -0.003
-11.102 -10.709 -0.388
-11.102 -10.713 -0.386
-11.178 -10.939 -0.162
-11.466 -11.382 0.004
-10.786 -10.317 -0.403
-11.178 -10.939 -0.163
-11.465 -11.368 -0.009
-10.877 -10.666 -0.130
-10.787 -10.362 -0.360
-9.633 -9.085 -0.494
-11.102 -10.713 -0.385
-14.305 -14.339 0.190
-11.479 -11.389 -0.005
-10.877 -10.827 0.054
-11.178 -10.939 -0.162
-10.786 -10.346 -0.381
-11.178 -10.940 -0.162
-10.845 -11.054 0.254
-10.787 -10.333 -0.390
-11.178 -10.939 -0.162
-10.982 -10.501 -0.552
-10.878 -10.807 0.027
-14.282 -14.281 0.160
-11.178 -10.939 -0.162
-10.132 -9.424 -0.572
-14.178 -14.196 0.172
-11.102 -10.713 -0.385
-11.102 -10.713 -0.384
-11.178 -10.939 -0.162
-10.859 -10.856 0.089
-10.877 -10.666 -0.130
-10.080 -9.520 -0.449
-11.178 -10.938 -0.162
-10.877 -10.666 -0.130
-11.479 -11.383 -0.009
-8.658 -8.841 0.302
-14.251 -14.245 0.145
-11.175 -10.948 -0.158
-10.125 -9.421 -0.567
-9.633 -9.096 -0.482
-10.879 -10.665 -0.133
-10.879 -10.806 0.025
-10.085 -9.520 -0.455
-11.177 -10.928 -0.169
-10.080 -9.521 -0.449
-11.184 -10.938 -0.170
-11.183 -10.938 -0.171
-11.223 -10.615 -0.537
-11.178 -10.940 -0.162
-14.877 -15.199 0.413
-10.132 -9.424 -0.572
-10.100 -9.429 -0.591
-11.177 -10.951 -0.159
-10.484 -9.950 -0.529
-15.068 -15.371 0.377
-10.707 -10.045 -0.594
-10.879 -10.818 0.041
-10.879 -10.814 0.036
-10.875 -10.789 -0.003
-11.169 -10.913 -0.171
-10.789 -10.342 -0.383
-11.178 -10.938 -0.163
-11.160 -10.943 -0.144
-11.178 -10.939 -0.163
-10.789 -10.329 -0.395
-8.659 -8.838 0.296
-15.068 -15.371 0.377
-10.484 -9.950 -0.530
-14.882 -15.200 0.409
-10.287 -10.597 0.269
-10.788 -10.330 -0.393
-11.177 -10.947 -0.156
-15.068 -15.371 0.377
-10.972 -10.555 -0.517
-10.751 -9.848 -0.843
-14.876 -15.194 0.406
-9.756 -9.204 -0.528
-9.560 -9.305 -0.194
-11.178 -10.938 -0.162
-14.822 -15.200 0.451
-10.483 -9.953 -0.525
-10.787 -10.338 -0.386
-11.178 -10.938 -0.163
-11.178 -10.938 -0.162
-11.478 -11.371 -0.022
-11.184 -10.938 -0.170
-11.221 -10.628 -0.525
-10.787 -10.339 -0.385
-10.810 -9.840 -0.892
-15.068 -15.371 0.377
-15.637 -15.214 -0.373
-11.184 -10.939 -0.169
-10.788 -10.345 -0.378
-9.633 -9.097 -0.478
-9.632 -9.070 -0.501
-14.882 -15.202 0.413
-13.783 -13.888 0.045
-11.463 -11.384 0.010
-11.178 -10.939 -0.162
-14.877 -15.199 0.413
-11.126 -10.711 -0.421
-10.125 -9.424 -0.565
-10.809 -9.830 -0.898
-11.178 -10.939 -0.162
-10.465 -10.079 -0.413
-10.479 -9.970 -0.513
-10.526 -9.940 -0.569
-11.176 -10.943 -0.158
-9.606 -9.401 -0.116
-9.256 -8.569 -0.575
-9.606 -9.401 -0.116
-10.125 -9.424 -0.566
-10.125 -9.424 -0.565
-10.939 -10.351 -0.540
-9.274 -8.647 -0.514
-14.871 -15.211 0.435
-14.878 -15.199 0.412
-15.068 -15.371 0.376
-9.633 -9.100 -0.478
-10.789 -10.330 -0.396
-11.180 -10.939 -0.165
-14.883 -15.196 0.402
-11.089 -10.689 -0.399
-14.899 -15.256 0.335
-11.222 -10.630 -0.524
-11.075 -10.660 -0.482
-11.180 -10.939 -0.164
-9.602 -9.402 -0.112
-10.879 -10.827 0.050
-10.782 -10.273 -0.448
-11.180 -10.939 -0.166
-9.756 -9.210 -0.522
-10.126 -9.422 -0.567
-15.068 -15.368 0.375
-14.878 -15.199 0.412
-11.180 -10.938 -0.165
-11.159 -10.937 -0.157
-10.483 -9.954 -0.525
-10.879 -10.829 0.052
-9.696 -8.996 -0.646
-10.809 -10.343 -0.403
-9.444 -8.936 -0.425
-11.103 -10.713 -0.387
-10.126 -9.423 -0.567
-9.633 -9.105 -0.472
-10.761 -9.840 -0.841
-11.162 -10.981 -0.138
-10.879 -10.806 0.026
-11.169 -10.948 -0.158
-11.181 -10.937 -0.171
-11.136 -10.990 -0.089
-9.632 -9.081 -0.496
-9.637 -9.164 -0.376
-11.178 -10.939 -0.162
-11.185 -10.931 -0.175
-9.756 -9.199 -0.533
-14.877 -15.199 0.413
-10.878 -10.810 0.034
-11.182 -10.922 -0.180
-11.160 -10.933 -0.153
-11.182 -10.925 -0.178
-14.877 -15.198 0.412
-11.169 -10.953 -0.148
-9.648 -9.165 -0.387
-10.877 -10.665 -0.131
-11.151 -10.901 -0.198
-10.878 -10.822 0.046
-10.132 -9.424 -0.572
-11.178 -10.940 -0.163
-11.226 -10.679 -0.480
-11.115 -10.955 -0.094
-9.605 -9.183 -0.407
-11.178 -10.940 -0.162
-14.877 -15.197 0.411
-11.720 -11.394 -0.313
-10.128 -9.423 -0.568
-8.020 -7.968 0.013
-11.180 -10.940 -0.163
-10.810 -10.327 -0.417
-10.126 -9.420 -0.568
-10.788 -10.335 -0.390
-11.180 -10.938 -0.165
-10.098 -9.429 -0.589
-11.073 -10.659 -0.397
-11.180 -10.939 -0.164
-11.180 -10.938 -0.164
-11.221 -10.629 -0.523
-11.168 -10.971 -0.144
-11.180 -10.938 -0.167
-10.133 -9.422 -0.575
-10.133 -9.422 -0.575
-11.177 -10.940 -0.162
-11.180 -10.938 -0.165
-9.200 -8.825 -0.312
-10.797 -10.871 0.143
-10.787 -10.307 -0.414
-11.180 -10.939 -0.165
-9.756 -9.188 -0.545
-13.754 -13.730 0.010
-10.097 -9.426 -0.591
-11.094 -10.696 -0.389
-10.892 -10.666 -0.144
-11.221 -10.623 -0.528
-10.789 -10.337 -0.387
-11.221 -10.618 -0.533
-10.133 -9.424 -0.574
-14.338 -14.628 0.319
-11.126 -10.712 -0.421
-9.018 -8.870 -0.058
-10.097 -9.428 -0.589
-9.648 -9.166 -0.386
-11.181 -10.923 -0.183
-11.164 -10.943 -0.153
-7.587 -7.873 0.356
-10.889 -10.666 -0.142
-11.220 -10.620 -0.529
-11.480 -11.384 -0.009
-10.889 -10.666 -0.142
-10.810 -10.322 -0.422
-8.020 -7.970 0.014
-9.268 -8.649 -0.504
-10.259 -9.745 -0.390
-8.020 -7.969 0.014
-11.179 -10.940 -0.162
-11.179 -10.938 -0.164
-11.179 -10.938 -0.164
-11.052 -10.658 -0.384
-14.878 -15.198 0.411
-11.185 -10.939 -0.170
-10.132 -9.423 -0.574
-11.119 -10.686 -0.443
-7.185 -8.275 1.148
-15.632 -15.200 -0.384
-10.789 -10.323 -0.400
-11.096 -10.722 -0.364
-9.201 -8.818 -0.322
-10.133 -9.423 -0.574
-11.177 -10.951 -0.156
-14.878 -15.199 0.414
-11.222 -10.620 -0.532
-13.818 -14.411 0.465
-11.180 -10.940 -0.163
-10.126 -9.422 -0.568
-9.633 -9.402 -0.142
-11.067 -11.362 0.385
-10.126 -9.423 -0.567
-10.647 -10.248 -0.343
-11.316 -11.166 -0.121
-11.186 -10.939 -0.171
-15.638 -15.233 -0.356
-10.889 -10.809 0.020
-10.832 -9.822 -0.936
-10.878 -10.833 0.056
-10.880 -10.665 -0.134
-8.020 -7.969 0.013
-10.877 -10.838 0.051
-10.803 -9.810 -0.889
-14.878 -15.198 0.411
-10.652 -10.306 -0.291
-11.177 -10.942 -0.161
-7.601 -7.834 0.302
-9.633 -9.403 -0.143
-10.534 -10.515 0.032
-10.825 -10.849 0.102
-11.104 -10.713 -0.388
-9.609 -9.400 -0.120
-10.653 -10.276 -0.318
-14.379 -14.443 0.191
-11.187 -10.932 -0.179
-10.667 -10.019 -0.604
-10.886 -10.919 0.051
-10.784 -10.279 -0.438
-8.020 -7.971 0.015
-10.133 -9.424 -0.574
-9.634 -9.102 -0.475
-9.275 -8.649 -0.513
-10.880 -10.665 -0.135
-10.875 -10.829 0.057
-11.180 -10.938 -0.165
-10.484 -9.952 -0.527
-10.086 -9.520 -0.456
-14.878 -15.205 0.414
-10.877 -10.837 0.060
-10.133 -9.422 -0.575
-7.631 -8.910 1.360
-10.126 -9.423 -0.567
-10.126 -9.422 -0.568
-7.557 -7.911 0.418
-9.609 -9.402 -0.118
-10.126 -9.421 -0.569
-10.126 -9.422 -0.567
-13.480 -13.280 -0.153
-14.877 -15.198 0.414
-10.086 -9.520 -0.456
-10.859 -10.772 -0.080
-8.020 -7.970 0.014
-10.946 -10.771 -0.189
-7.402 -7.565 0.227
-10.812 -9.833 -0.898
-7.627 -7.758 0.209
-9.624 -9.400 -0.135
-7.667 -7.974 0.379
-11.283 -11.103 -0.136
-9.633 -9.403 -0.142
-10.383 -9.943 -0.430
-10.812 -9.834 -0.898
-10.879 -10.824 0.047
-11.465 -11.366 -0.013
-14.878 -15.198 0.411
-14.870 -15.219 0.353
-10.789 -10.341 -0.384
-10.843 -11.039 0.244
-14.878 -15.199 0.412
-7.330 -7.483 0.202
-9.808 -9.619 -0.157
-11.180 -10.938 -0.165
-8.365 -9.007 0.613
-11.180 -10.943 -0.160
-10.540 -10.417 -0.060
-10.126 -9.422 -0.568
-13.689 -13.645 0.076
-10.126 -9.423 -0.568
-14.336 -14.432 0.212
-9.633 -9.095 -0.482
-10.133 -9.422 -0.575
-15.638 -15.105 -0.471
-10.880 -10.665 -0.134
-7.535 -7.854 0.372
-9.756 -9.219 -0.515
-11.180 -10.941 -0.162
-10.525 -10.163 -0.292
-11.052 -11.361 0.396
-10.439 -10.328 -0.062
-10.227 -10.077 -0.176
-7.471 -7.838 0.416
-10.808 -10.955 0.192
-9.634 -9.091 -0.488
-11.180 -10.940 -0.164
-14.369 -14.628 0.261
-10.791 -9.829 -0.892
-11.180 -10.940 -0.164
-9.609 -9.401 -0.119
-11.180 -10.939 -0.164
-13.498 -13.611 0.240
-10.781 -9.774 -0.905
-11.188 -10.936 -0.174
-11.209 -10.499 -0.632
-10.126 -9.424 -0.568
-10.940 -10.990 0.051
-14.233 -14.174 0.162
-11.477 -11.386 -0.007
-10.789 -10.343 -0.383
-9.791 -9.959 0.412
-7.747 -7.962 0.281
-10.487 -9.933 -0.548
-7.726 -7.758 0.181
-11.181 -10.940 -0.164
-10.780 -10.321 -0.385
-11.060 -10.640 -0.401
-13.749 -13.854 0.138
-11.178 -10.937 -0.168
-13.790 -13.795 0.073
-9.633 -9.402 -0.142
-10.847 -10.647 -0.121
-11.496 -11.379 -0.030
-7.563 -7.865 0.371
-15.644 -15.167 -0.421
-11.164 -10.933 -0.163
-15.055 -15.377 0.384
-10.126 -9.422 -0.567
-11.420 -11.291 -0.044
-9.683 -9.049 -0.582
-9.602 -9.402 -0.112
-10.286 -10.595 0.269
-12.951 -13.295 0.317
-12.962 -13.273 0.284
-11.222 -10.622 -0.530
-10.946 -10.777 -0.184
-10.763 -10.345 -0.357
-10.880 -10.665 -0.134
-11.467 -11.349 -0.026
-14.876 -15.198 0.416
-6.978 -8.247 1.340
-15.636 -15.110 -0.465
-11.104 -10.704 -0.389
-14.560 -14.942 0.471
-11.238 -10.626 -0.542
-10.801 -10.365 -0.370
-11.035 -10.572 -0.440
-10.787 -10.319 -0.403
-7.420 -8.699 1.346
-10.819 -11.514 0.784
-8.025 -9.358 1.401
-7.617 -9.353 1.799
-8.421 -9.856 1.198
-7.521 -8.924 1.476
-7.641 -9.371 1.797
-8.421 -9.856 1.198
-8.421 -9.857 1.198
-8.553 -10.077 1.602
-8.421 -9.861 1.210
-7.332 -8.110 0.872
-6.593 -7.848 1.334
-8.543 -9.859 1.108
-8.543 -9.859 1.108
-8.543 -9.859 1.108
-6.816 -7.996 1.262
-10.769 -11.518 0.837
-8.107 -9.913 1.834
-7.520 -8.885 1.446
-11.524 -11.600 0.176
-8.534 -9.856 1.115
-7.495 -7.701 0.251
-8.534 -9.856 1.115
-7.723 -9.105 1.452
-8.534 -9.856 1.115
-7.419 -8.701 1.349
-10.466 -12.003 1.652
-8.553 -10.078 1.603
-8.461 -10.007 1.601
-8.050 -10.038 2.028
-8.534 -9.856 1.116
-8.534 -9.856 1.116
-8.421 -9.857 1.198
-9.588 -10.991 1.381
-7.464 -8.571 1.169
-8.532 -9.858 1.119
-10.870 -11.509 0.730
-10.389 -12.122 1.803
-8.023 -9.389 1.437
-10.313 -12.143 1.879
-8.023 -9.390 1.437
-8.107 -9.913 1.834
-7.527 -8.927 1.475
-8.534 -9.856 1.115
-10.501 -12.160 1.701
-11.461 -11.759 0.396
-8.534 -9.856 1.116
-7.630 -7.921 0.328
-7.289 -7.860 0.461
-10.519 -12.038 1.629
-8.107 -9.913 1.834
-8.553 -10.078 1.602
-10.833 -11.505 0.764
-8.461 -10.006 1.600
-7.639 -9.072 1.468
-7.465 -8.570 1.167
-10.520 -12.034 1.622
-8.530 -9.856 1.120
-10.607 -11.494 0.832
-10.520 -12.043 1.632
-6.815 -7.997 1.264
-10.867 -11.505 0.732
-10.899 -11.503 0.695
-10.383 -12.132 1.785
-8.077 -8.698 0.581
-8.048 -8.607 0.590
-6.720 -7.237 0.593
-10.834 -11.508 0.767
-8.530 -9.856 1.120
-10.468 -12.004 1.651
-6.864 -8.452 1.475
-6.778 -7.386 0.689
-11.543 -11.441 0.009
-10.868 -11.509 0.732
-8.533 -9.856 1.117
-10.900 -11.505 0.696
-7.932 -9.292 1.444
-7.520 -8.006 0.479
-8.050 -10.037 2.026
-10.510 -12.014 1.616
-8.534 -9.856 1.116
-8.534 -9.856 1.116
-7.630 -7.922 0.329
-10.520 -12.039 1.627
-7.485 -8.573 1.151
-7.186 -8.275 1.158
-8.459 -10.079 1.697
-6.645 -7.479 0.910
-9.222 -9.623 0.516
-10.834 -11.510 0.766
-8.531 -9.856 1.118
-7.629 -7.920 0.327
-10.866 -11.509 0.734
-10.520 -12.037 1.624
-10.389 -12.122 1.803
-7.640 -9.359 1.785
-7.188 -8.269 1.150
-10.900 -11.506 0.697
-10.869 -11.509 0.730
-10.520 -12.031 1.620
-8.050 -10.036 2.026
-10.508 -12.028 1.635
-8.105 -9.911 1.831
-8.534 -9.856 1.116
-10.520 -12.032 1.620
-7.164 -8.265 1.171
-8.530 -9.856 1.120
-11.058 -11.678 0.751
-10.834 -11.511 0.768
-11.606 -11.308 -0.206
-10.899 -11.505 0.697
-10.834 -11.510 0.766
-7.630 -7.920 0.327
-8.013 -8.560 0.574
-8.107 -9.913 1.834
-10.530 -11.981 1.568
-7.438 -8.702 1.332
-7.873 -9.259 1.479
-6.842 -8.053 1.264
-8.534 -9.856 1.115
-11.616 -11.280 -0.221
-11.529 -11.572 0.143
-10.510 -12.019 1.621
-10.001 -10.011 0.121
-10.466 -12.003 1.653
-10.425 -12.176 1.770
-8.461 -10.006 1.599
-8.660 -10.084 1.498
-8.254 -9.652 1.505
-7.630 -7.921 0.328
-8.534 -9.857 1.116
-10.467 -12.006 1.654
-6.864 -8.456 1.478
-10.520 -12.041 1.630
-8.461 -10.006 1.600
-7.419 -8.701 1.350
-11.546 -11.392 -0.041
-7.341 -8.152 0.911
-6.815 -7.997 1.264
-10.849 -11.516 0.756
-10.520 -12.035 1.623
-8.530 -9.856 1.120
-8.530 -9.856 1.120
-7.339 -8.551 1.253
-11.543 -11.439 -0.002
-10.899 -11.506 0.698
-10.868 -11.511 0.732
-8.050 -10.036 2.026
-8.708 -9.942 1.072
-10.000 -10.011 0.122
-7.535 -8.922 1.476
-10.516 -11.996 1.596
-8.457 -10.007 1.606
-9.307 -9.929 0.615
-10.467 -12.003 1.652
-10.467 -12.004 1.652
-7.419 -8.701 1.349
-10.509 -12.006 1.608
-11.544 -11.418 -0.017
-10.868 -11.509 0.733
-10.510 -12.019 1.622
-8.050 -10.037 2.027
-7.447 -9.378 1.992
-8.379 -9.995 1.671
-8.534 -9.856 1.116
-6.812 -7.548 0.811
-8.553 -10.078 1.602
-10.517 -12.049 1.643
-7.320 -8.115 0.900
-8.254 -9.652 1.505
-10.359 -12.032 1.752
-6.646 -7.493 0.921
-8.493 -10.000 1.558
-11.446 -11.297 -0.037
-8.250 -9.672 1.529
-8.107 -9.913 1.834
-8.096 -8.573 0.496
-7.105 -8.674 1.647
-8.089 -9.985 1.938
-10.389 -12.122 1.803
-6.629 -7.838 1.291
-10.530 -11.985 1.572
-10.520 -12.036 1.624
-8.094 -8.583 0.503
-8.165 -9.370 1.278
-10.868 -11.508 0.731
-8.042 -10.022 2.024
-7.438 -8.703 1.332
-8.530 -9.856 1.120
-8.530 -9.856 1.119
-8.220 -9.843 1.489
-8.254 -9.652 1.505
-8.050 -10.037 2.027
-8.493 -9.999 1.557
-8.627 -12.085 3.344
-11.533 -11.526 0.099
-10.520 -12.032 1.621
-6.646 -7.504 0.932
-8.107 -9.913 1.834
-10.520 -12.039 1.626
-8.470 -10.077 1.685
-10.511 -12.019 1.620
-11.545 -11.389 -0.053
-8.094 -8.582 0.502
-10.509 -12.025 1.623
-9.327 -9.663 0.448
-8.107 -9.913 1.834
-9.655 -10.841 1.277
-8.087 -9.570 1.387
-10.314 -12.144 1.879
-8.561 -9.815 1.153
-10.530 -11.979 1.565
-8.369 -9.648 1.385
-10.506 -12.003 1.601
-10.510 -12.028 1.628
-7.326 -8.112 0.884
-8.050 -10.037 2.027
-8.461 -10.009 1.602
-8.662 -9.920 1.131