-6.076 -6.488 0.429
-6.288 -6.440 0.183
-10.756 -9.710 -1.016
-15.240 -7.597 -7.665
-7.870 -5.345 -2.547
-6.076 -6.489 0.430
-6.287 -6.440 0.184
-7.205 -6.527 -0.648
-15.932 -9.716 -6.198
-6.269 -6.441 0.204
-6.287 -6.438 0.182
-6.269 -6.441 0.204
-8.674 -7.380 -1.267
-10.865 -9.696 -1.139
-6.076 -6.490 0.431
-8.629 -7.369 -1.232
-5.935 -6.481 0.563
-7.898 -5.334 -2.591
-7.209 -6.494 -0.693
-6.269 -6.441 0.204
-7.200 -6.528 -0.642
-6.269 -6.441 0.204
-6.269 -6.441 0.204
-8.174 -5.639 -2.512
-6.076 -6.490 0.431
-6.076 -6.490 0.431
-5.620 -6.222 0.617
-8.674 -7.380 -1.266
-7.898 -5.334 -2.591
-7.078 -6.508 -0.546
-6.269 -6.441 0.204
-6.076 -6.490 0.431
-6.269 -6.441 0.204
-7.200 -6.528 -0.642
-6.076 -6.490 0.431
-7.200 -6.528 -0.642
-8.174 -5.639 -2.512
-6.849 -6.411 -0.407
-12.886 -7.687 -5.327
-6.076 -6.490 0.431
-10.865 -9.696 -1.139
-7.209 -6.494 -0.693
-8.175 -5.639 -2.513
-6.269 -6.441 0.204
-6.142 -6.414 0.303
-8.629 -7.369 -1.232
-8.174 -5.639 -2.512
-8.174 -5.639 -2.512
-7.078 -6.508 -0.546
-10.865 -9.696 -1.139
-6.269 -6.441 0.204
-7.543 -7.424 -0.088
-5.935 -6.481 0.563
-6.976 -6.415 -0.530
-7.209 -6.494 -0.693
-7.200 -6.528 -0.642
-10.865 -9.696 -1.139
-6.142 -6.414 0.303
-6.269 -6.441 0.204
-13.842 -7.704 -6.167
-7.078 -6.508 -0.546
-6.844 -6.382 -0.431
-5.621 -6.222 0.617
-8.174 -5.639 -2.512
-8.174 -5.639 -2.512
-7.200 -6.528 -0.642
-7.898 -5.334 -2.592
-15.375 -7.602 -7.808
-7.079 -6.508 -0.546
-6.707 -6.369 -0.308
-7.209 -6.494 -0.693
-5.936 -6.481 0.562
-5.936 -6.481 0.562
-7.209 -6.494 -0.693
-8.129 -5.656 -2.450
-8.174 -5.639 -2.512
-8.174 -5.639 -2.512
-7.848 -5.343 -2.528
-8.174 -5.639 -2.512
-8.174 -5.639 -2.512
-8.174 -5.639 -2.512
-8.174 -5.639 -2.512
-7.200 -6.528 -0.642
-7.209 -6.494 -0.693
-5.927 -6.480 0.570
-6.287 -6.438 0.182
-5.935 -6.481 0.563
-6.142 -6.414 0.303
-8.174 -5.639 -2.511
-6.142 -6.414 0.303
-8.174 -5.639 -2.511
-5.927 -6.480 0.570
-6.976 -6.415 -0.530
-5.621 -6.222 0.617
-8.173 -5.639 -2.511
-8.129 -5.656 -2.450
-7.209 -6.494 -0.693
-7.209 -6.494 -0.693
-5.927 -6.480 0.570
-6.142 -6.414 0.302
-8.129 -5.656 -2.450
-8.804 -5.943 -2.834
-5.621 -6.222 0.617
-6.142 -6.414 0.303
-5.621 -6.222 0.617
-8.173 -5.639 -2.511
-15.155 -9.774 -5.353
-8.804 -5.943 -2.834
-8.173 -5.639 -2.511
-5.372 -6.027 0.665
-13.365 -7.796 -5.611
-8.363 -5.585 -2.808
-7.200 -6.528 -0.642
-5.621 -6.222 0.617
-7.078 -6.508 -0.545
-5.621 -6.222 0.617
-6.976 -6.415 -0.530
-7.200 -6.528 -0.642
-8.129 -5.656 -2.450
-6.269 -6.441 0.203
-8.363 -5.585 -2.809
-8.174 -5.639 -2.511
-7.488 -7.420 -0.036
-15.155 -9.774 -5.353
-8.129 -5.656 -2.450
-5.469 -5.643 0.205
-6.976 -6.415 -0.530
-6.076 -6.490 0.431
-10.865 -9.696 -1.139
-7.494 -7.415 -0.048
-8.174 -5.639 -2.512
-8.174 -5.639 -2.512
-8.174 -5.639 -2.512
-6.976 -6.415 -0.530
-8.174 -5.639 -2.512
-7.209 -6.494 -0.693
-5.621 -6.222 0.617
-5.695 -5.808 0.145
-7.494 -7.415 -0.048
-7.494 -7.415 -0.048
-6.848 -6.411 -0.406
-5.621 -6.222 0.617
-5.695 -5.808 0.145
-15.166 -9.774 -5.364
-15.456 -9.303 -6.143
-8.174 -5.639 -2.512
-6.848 -6.411 -0.406
-7.494 -7.415 -0.048
-5.927 -6.481 0.571
-6.848 -6.411 -0.406
-6.848 -6.411 -0.406
-6.269 -6.441 0.204
-7.209 -6.494 -0.693
-7.200 -6.528 -0.642
-7.500 -7.414 -0.055
-5.372 -6.025 0.663
-8.804 -5.943 -2.835
-6.916 -6.431 -0.454
-6.858 -6.502 -0.327
-5.372 -6.032 0.670
-6.965 -6.419 -0.516
-5.621 -6.223 0.618
-6.835 -6.385 -0.419
-6.779 -6.425 -0.324
-6.840 -6.415 -0.395
-15.166 -9.774 -5.364
-8.800 -5.944 -2.829
-6.916 -6.431 -0.454
-13.311 -7.742 -5.615
-6.541 -6.133 -0.382
-15.165 -9.774 -5.364
-15.165 -9.774 -5.364
-12.761 -7.649 -5.152
-8.170 -5.640 -2.507
-6.779 -6.425 -0.324
-8.800 -5.944 -2.829
-5.372 -6.032 0.670
-7.500 -7.415 -0.055
-8.800 -5.944 -2.829
-7.201 -6.498 -0.682
-6.779 -6.425 -0.324
-8.171 -5.640 -2.508
-15.150 -9.772 -5.350
-8.171 -5.640 -2.507
-5.847 -5.706 -0.126
-6.779 -6.425 -0.324
-5.372 -6.032 0.669
-8.171 -5.640 -2.508
-8.800 -5.944 -2.829
-7.201 -6.498 -0.682
-5.372 -6.032 0.669
-7.193 -6.529 -0.633
-7.494 -7.415 -0.048
-5.847 -5.706 -0.125
-5.621 -6.223 0.618
-5.371 -6.032 0.670
-8.170 -5.640 -2.507
-7.120 -6.547 -0.548
-7.929 -8.556 0.658
-6.998 -6.548 -0.423
-6.839 -6.415 -0.394
-5.935 -6.482 0.563
-13.155 -7.956 -5.297
-8.170 -5.640 -2.507
-7.192 -6.529 -0.632
-8.800 -5.944 -2.829
-5.372 -6.032 0.670
-8.363 -5.585 -2.808
-8.170 -5.640 -2.507
-7.071 -6.511 -0.536
-13.318 -7.772 -5.598
-7.192 -6.529 -0.632
-15.150 -9.772 -5.350
-7.804 -8.199 0.424
-6.797 -6.426 -0.340
-6.998 -6.548 -0.423
-6.835 -6.385 -0.420
-8.800 -5.944 -2.830
-7.201 -6.497 -0.682
-6.797 -6.426 -0.341
-5.925 -6.481 0.572
-8.171 -5.640 -2.508
-15.166 -9.774 -5.364
-6.999 -6.548 -0.424
-8.171 -5.640 -2.508
-8.171 -5.640 -2.508
-5.621 -6.223 0.618
-6.997 -6.548 -0.422
-5.925 -6.481 0.572
-6.838 -6.415 -0.393
-7.859 -8.505 0.674
-7.191 -6.530 -0.631
-7.494 -7.415 -0.048
-8.170 -5.640 -2.507
-7.070 -6.512 -0.534
-5.372 -6.034 0.671
-7.877 -8.557 0.711
-7.212 -6.494 -0.697
-7.082 -6.507 -0.550
-13.167 -7.787 -5.410
-6.849 -6.410 -0.409
-8.092 -5.666 -2.404
-8.794 -5.946 -2.822
-8.137 -5.649 -2.465
-5.927 -6.479 0.569
-7.212 -6.494 -0.697
-8.794 -5.946 -2.822
-5.371 -6.029 0.668
-8.137 -5.649 -2.465
-7.010 -6.530 -0.450
-8.453 -5.564 -2.869
-6.797 -6.426 -0.341
-6.797 -6.426 -0.341
-8.789 -5.946 -2.816
-5.925 -6.479 0.571
-8.875 -5.942 -2.906
-6.797 -6.426 -0.341
-8.789 -5.946 -2.816
-7.486 -7.420 -0.034
-6.917 -6.431 -0.456
-6.949 -6.712 -0.310
-7.926 -5.872 -2.023
-6.798 -6.426 -0.341
-6.798 -6.426 -0.341
-6.798 -6.426 -0.341
-5.371 -6.034 0.673
-7.486 -7.420 -0.034
-5.371 -6.035 0.673
-5.371 -6.034 0.673
-5.371 -6.035 0.673
-6.798 -6.426 -0.341
-7.752 -8.522 0.801
-6.416 -6.127 -0.264
-7.001 -6.548 -0.427
-8.789 -5.946 -2.816
-8.789 -5.946 -2.816
-13.165 -7.787 -5.408
-14.697 -9.753 -4.928
-8.133 -5.650 -2.460
-8.789 -5.946 -2.816
-8.789 -5.946 -2.816
-8.789 -5.946 -2.816
-8.789 -5.946 -2.816
-6.926 -6.727 -0.264
-8.133 -5.650 -2.460
-8.133 -5.650 -2.460
-4.995 -5.645 0.681
-13.639 -7.879 -5.762
-8.132 -5.650 -2.459
-5.695 -5.808 0.145
-6.544 -6.132 -0.386
-9.294 -9.814 0.547
-8.789 -5.946 -2.816
-14.687 -9.753 -4.919
-5.620 -6.222 0.617
-13.639 -7.875 -5.766
-14.697 -9.754 -4.928
-7.744 -8.479 0.764
-8.789 -5.946 -2.816
-7.926 -5.872 -2.023
-13.165 -7.787 -5.408
-7.744 -8.469 0.754
-5.925 -6.479 0.571
-5.925 -6.479 0.571
-8.132 -5.650 -2.459
-8.788 -5.946 -2.815
-8.331 -5.601 -2.759
-6.796 -6.426 -0.340
-6.779 -6.425 -0.323
-8.874 -5.942 -2.906
-5.846 -5.706 -0.125
-8.132 -5.650 -2.459
-6.997 -6.545 -0.425
-6.441 -6.126 -0.289
-7.000 -6.548 -0.425
-13.165 -7.787 -5.408
-8.133 -5.650 -2.460
-7.751 -8.497 0.774
-7.753 -8.520 0.797
-6.796 -6.426 -0.340
-6.796 -6.426 -0.340
-8.658 -8.494 -0.195
-5.370 -6.035 0.673
-5.370 -6.035 0.674
-7.000 -6.548 -0.425
-7.752 -8.522 0.800
-5.709 -6.261 0.574
-8.658 -8.494 -0.195
-7.198 -6.528 -0.639
-6.442 -6.126 -0.290
-5.949 -6.202 0.277
-8.133 -5.650 -2.460
-6.565 -6.122 -0.418
-13.639 -7.879 -5.762
-6.963 -6.597 -0.335
-5.709 -6.261 0.574
-8.789 -5.946 -2.816
-8.133 -5.650 -2.460
-13.165 -7.787 -5.408
-5.925 -6.479 0.571
-14.697 -9.754 -4.928
-8.789 -5.946 -2.816
-5.371 -6.035 0.673
-5.424 -5.442 0.051
-14.697 -9.748 -4.932
-5.709 -6.261 0.574
-7.486 -7.420 -0.034
-7.486 -7.420 -0.034
-9.294 -9.814 0.547
-4.995 -5.642 0.677
-5.709 -6.261 0.574
-7.718 -8.293 0.604
-8.133 -5.650 -2.460
-8.133 -5.650 -2.460
-8.133 -5.650 -2.460
-6.926 -6.727 -0.264
-7.001 -6.548 -0.426
-8.133 -5.650 -2.460
-8.133 -5.650 -2.460
-13.165 -7.793 -5.400
-8.133 -5.650 -2.460
-5.944 -5.777 -0.137
-7.002 -6.555 -0.419
-8.133 -5.650 -2.460
-14.722 -9.753 -4.953
-7.002 -6.555 -0.420
-6.442 -6.126 -0.290
-6.442 -6.126 -0.290
-5.371 -6.035 0.673
-7.742 -8.440 0.729
-5.467 -5.642 0.206
-7.001 -6.548 -0.427
-7.976 -5.679 -2.274
-8.309 -5.440 -2.845
-8.133 -5.650 -2.460
-6.853 -6.504 -0.319
-8.004 -5.668 -2.312
-8.875 -5.942 -2.906
-7.001 -6.548 -0.427
-7.486 -7.420 -0.034
-8.133 -5.650 -2.460
-8.789 -5.946 -2.816
-5.949 -6.202 0.277
-7.486 -7.420 -0.034
-8.133 -5.650 -2.460
-7.687 -8.523 0.867
-14.697 -9.755 -4.925
-13.917 -9.467 -4.521
-8.874 -5.942 -2.906
-8.789 -5.946 -2.816
-7.418 -4.635 -2.819
-7.001 -6.548 -0.427
-8.133 -5.650 -2.460
-8.875 -5.942 -2.907
-7.001 -6.548 -0.427
-7.001 -6.562 -0.413
-6.861 -6.505 -0.326
-13.165 -7.787 -5.408
-5.925 -6.479 0.571
-8.659 -8.494 -0.195
-7.689 -8.415 0.755
-8.133 -5.650 -2.460
-14.697 -9.754 -4.928
-9.294 -9.814 0.547
-5.423 -5.442 0.051
-7.752 -8.522 0.801
-5.709 -6.261 0.574
-7.001 -6.548 -0.427
-13.165 -7.787 -5.408
-13.164 -7.772 -5.426
-5.426 -5.442 0.048
-5.709 -6.260 0.574
-6.780 -6.425 -0.324
-5.426 -5.442 0.048
-14.697 -9.753 -4.928
-7.752 -8.522 0.801
-7.486 -7.420 -0.034
-8.133 -5.650 -2.460
-5.949 -6.202 0.277
-8.133 -5.650 -2.460
-14.697 -9.754 -4.928
-6.909 -6.516 -0.363
-5.467 -5.644 0.207
-8.789 -5.946 -2.816
-7.001 -6.548 -0.427
-7.001 -6.548 -0.427
-5.426 -5.442 0.048
-8.133 -5.650 -2.460
-7.276 -5.777 -1.553
-8.133 -5.650 -2.460
-5.424 -5.442 0.051
-13.917 -9.467 -4.521
-10.361 -8.617 -1.729
-6.797 -6.426 -0.341
-9.294 -9.815 0.548
-8.133 -5.650 -2.460
-6.696 -6.372 -0.294
-8.789 -5.946 -2.816
-9.280 -9.829 0.577
-13.165 -7.787 -5.408
-13.164 -7.813 -5.388
-7.798 -8.411 0.643
-7.003 -6.555 -0.420
-8.133 -5.650 -2.460
-5.424 -5.442 0.051
-8.038 -5.044 -3.002
-7.002 -6.548 -0.427
-7.313 -5.438 -1.862
-7.926 -5.872 -2.023
-5.950 -6.202 0.277
-14.698 -9.753 -4.928
-8.133 -5.650 -2.460
-14.687 -9.753 -4.919
-8.133 -5.650 -2.460
-7.002 -6.548 -0.427
-8.133 -5.650 -2.460
-5.684 -5.807 0.156
-14.698 -9.753 -4.929
-6.442 -6.126 -0.291
-7.743 -8.444 0.728
-13.164 -7.787 -5.402
-7.204 -6.497 -0.685
-8.133 -5.650 -2.460
-13.165 -7.788 -5.407
-8.133 -5.650 -2.460
-5.467 -5.642 0.206
-5.709 -6.260 0.574
-5.709 -6.261 0.574
-7.486 -7.420 -0.034
-6.442 -6.126 -0.290
-13.639 -7.879 -5.762
-10.756 -9.710 -1.016
-8.279 -5.608 -2.699
-8.652 -5.955 -2.670
-14.697 -9.753 -4.928
-8.132 -5.649 -2.460
-5.859 -6.400 0.565
-6.423 -6.130 -0.267
-5.919 -6.481 0.578
-7.640 -7.529 -0.295
-7.999 -5.669 -2.307
-8.128 -5.651 -2.454
-14.686 -9.754 -4.917
-6.982 -6.560 -0.394
-8.128 -5.651 -2.455
-14.697 -9.753 -4.928
-6.982 -6.553 -0.402
-9.293 -9.814 0.548
-7.721 -8.601 0.908
-8.871 -5.942 -2.902
-5.958 -6.305 0.377
-8.631 -7.363 -1.239
-14.696 -9.756 -4.925
-6.484 -6.116 -0.343
-14.696 -9.756 -4.925
-6.860 -6.505 -0.325
-6.796 -6.426 -0.340
-7.358 -5.431 -1.913
-7.923 -5.872 -2.020
-5.367 -6.072 0.714
-14.706 -9.756 -4.934
-7.499 -7.409 -0.060
-5.948 -6.202 0.278
-8.131 -5.650 -2.458
-7.001 -6.556 -0.418
-8.873 -5.942 -2.904
-7.736 -8.403 0.696
-7.499 -7.408 -0.060
-14.696 -9.756 -4.925
-8.131 -5.650 -2.458
-6.644 -6.376 -0.238
-10.756 -9.710 -1.016
-14.705 -9.755 -4.935
-8.598 -8.481 -0.146
-8.132 -5.650 -2.458
-13.183 -7.774 -5.442
-8.132 -5.650 -2.458
-13.923 -9.470 -4.526
-8.132 -5.650 -2.458
-4.995 -5.641 0.678
-5.695 -5.808 0.145
-6.796 -6.426 -0.340
-5.949 -6.202 0.278
-7.001 -6.556 -0.418
-10.782 -6.720 -4.669
-9.288 -9.811 0.552
-5.925 -6.480 0.571
-7.498 -7.410 -0.058
-7.001 -6.556 -0.418
-7.751 -8.533 0.813
-8.131 -5.650 -2.458
-5.426 -5.442 0.048
-5.948 -6.202 0.278
-13.183 -7.774 -5.442
-7.498 -7.410 -0.058
-6.858 -6.415 -0.412
-8.611 -5.961 -2.624
-5.925 -6.480 0.571
-13.677 -7.864 -5.817
-7.975 -5.679 -2.273
-14.694 -9.755 -4.924
-14.693 -9.756 -4.918
-6.796 -6.426 -0.340
-6.860 -6.505 -0.325
-6.796 -6.426 -0.340
-7.195 -5.742 -1.510
-5.925 -6.480 0.571
-7.194 -5.744 -1.506
-10.571 -8.107 -2.852
-7.750 -8.529 0.809
-5.925 -6.480 0.571
-7.498 -7.410 -0.058
-5.925 -6.480 0.571
-5.708 -6.260 0.575
-7.498 -7.410 -0.058
-4.374 -4.505 0.159
-5.943 -5.777 -0.136
-7.001 -6.556 -0.418
-7.074 -6.520 -0.529
-13.120 -7.886 -5.337
-13.606 -8.047 -5.558
-8.132 -5.650 -2.458
-6.796 -6.426 -0.340
-5.708 -6.260 0.575
-6.441 -6.126 -0.289
-5.707 -6.260 0.575
-7.354 -6.066 -1.291
-5.934 -6.481 0.563
-7.354 -6.066 -1.291
-7.001 -6.556 -0.418
-8.598 -8.481 -0.146
-5.949 -6.202 0.278
-8.132 -5.650 -2.458
-7.074 -6.511 -0.538
-13.182 -7.800 -5.416
-5.943 -5.777 -0.136
-4.374 -4.505 0.160
-6.858 -6.415 -0.413
-7.713 -8.290 0.603
-5.715 -6.260 0.567
-5.469 -5.646 0.208
-9.307 -9.806 0.528
-5.855 -6.313 0.481
-7.453 -7.427 0.005
-13.214 -7.768 -5.480
-7.869 -5.877 -1.961
-7.225 -5.735 -1.548
-4.748 -5.092 0.301
-4.766 -4.469 -0.279
-4.766 -4.470 -0.279
-4.748 -5.092 0.301
-4.748 -5.092 0.301
-4.748 -5.092 0.301
-4.592 -4.870 0.254
-4.761 -5.091 0.280
-4.592 -4.870 0.254
-4.832 -4.774 -0.036
-4.592 -4.870 0.254
-4.443 -4.543 0.127
-4.747 -5.093 0.302
-4.761 -5.091 0.280
-4.779 -4.704 -0.046
-7.869 -5.877 -1.961
-4.747 -5.093 0.302
-4.747 -5.093 0.302
-5.091 -4.734 -0.422
-4.792 -4.602 -0.171
-4.747 -5.093 0.302
-4.443 -4.543 0.127
-7.264 -5.226 -2.088
-4.370 -4.564 0.220
-4.212 -4.564 0.380
-4.747 -5.093 0.302
-6.918 -6.517 -0.370
-4.766 -4.470 -0.279
-5.716 -6.259 0.566
-8.105 -5.660 -2.422
-13.183 -7.774 -5.443
-4.747 -5.093 0.302
-4.747 -5.093 0.302
-4.212 -4.564 0.380
-5.114 -4.814 -0.380
-7.074 -6.515 -0.534
-7.648 -5.207 -2.495
-5.114 -4.815 -0.380
-13.172 -7.778 -5.428
-8.105 -5.660 -2.422
-9.335 -9.810 0.504
-5.032 -5.963 0.944
-4.460 -4.543 0.110
-4.592 -4.870 0.254
-4.212 -4.564 0.380
-4.779 -4.704 -0.046
-4.820 -4.769 -0.019
-4.766 -4.470 -0.279
-5.709 -6.260 0.574
-4.763 -4.469 -0.277
-7.648 -5.207 -2.495
-9.335 -9.810 0.504
-4.747 -5.093 0.302
-13.172 -7.778 -5.428
-13.172 -7.778 -5.428
-5.385 -6.062 0.685
-9.335 -9.810 0.504
-4.212 -4.564 0.380
-7.752 -8.535 0.813
-4.324 -5.125 0.824
-7.075 -6.521 -0.529
-5.956 -6.203 0.272
-6.823 -6.468 -0.339
-4.212 -4.564 0.380
-4.747 -5.093 0.302
-4.592 -4.870 0.253
-6.803 -6.436 -0.356
-4.523 -4.873 0.340
-7.075 -6.521 -0.529
-6.918 -6.517 -0.370
-4.452 -4.889 0.426
-7.503 -7.409 -0.063
-4.592 -4.870 0.254
-7.648 -5.207 -2.495
-6.859 -6.415 -0.413
-5.879 -5.729 -0.151
-7.648 -5.207 -2.495
-6.859 -6.415 -0.413
-4.212 -4.564 0.380
-4.816 -4.602 -0.195
-4.554 -4.774 0.251
-6.918 -6.517 -0.370
-4.747 -5.093 0.302
-4.212 -4.564 0.380
-4.761 -5.091 0.280
-4.761 -5.091 0.280
-4.761 -5.091 0.280
-8.105 -5.660 -2.422
-6.918 -6.517 -0.370
-6.839 -6.414 -0.395
-5.872 -6.381 0.537
-4.747 -5.093 0.302
-4.766 -4.470 -0.279
-6.710 -6.371 -0.310
-7.075 -6.521 -0.529
-5.106 -4.807 -0.383
-4.747 -5.093 0.302
-5.106 -4.807 -0.383
-14.708 -9.758 -4.934
-3.694 -4.149 0.484
-3.694 -4.149 0.484
-4.443 -4.543 0.127
-5.956 -6.203 0.272
-4.779 -4.704 -0.046
-4.747 -5.093 0.302
-5.114 -4.814 -0.380
-4.747 -5.093 0.302
-3.694 -4.149 0.484
-6.486 -6.116 -0.345
-4.747 -5.093 0.302
-5.933 -6.480 0.563
-3.817 -4.180 0.393
-7.075 -6.521 -0.529
-4.747 -5.093 0.302
-13.655 -7.885 -5.774
-4.458 -4.707 0.271
-6.486 -6.116 -0.345
-4.761 -5.091 0.280
-7.648 -5.207 -2.495
-7.648 -5.207 -2.495
-7.648 -5.207 -2.495
-4.832 -4.774 -0.037
-4.832 -4.774 -0.037
-4.218 -4.692 0.503
-7.649 -5.206 -2.496
-7.649 -5.206 -2.496
-4.747 -5.093 0.302
-3.813 -4.331 0.548
-4.592 -4.870 0.254
-7.372 -6.083 -1.292
-5.114 -4.815 -0.380
-4.898 -4.883 0.016
-4.766 -4.471 -0.278
-3.770 -4.219 0.479
-4.525 -5.103 0.562
-4.747 -5.093 0.302
-3.801 -4.389 0.618
-3.694 -4.149 0.484
-4.519 -4.771 0.283
-4.819 -4.602 -0.198
-4.525 -5.103 0.562
-4.812 -4.707 -0.077
-4.618 -4.699 0.113
-4.761 -5.091 0.281
-5.947 -6.202 0.280
-7.648 -5.206 -2.495
-4.791 -4.602 -0.170
-6.913 -6.520 -0.363
-6.697 -6.367 -0.300
-4.530 -5.092 0.546
-5.114 -4.815 -0.380
-5.114 -4.815 -0.380
-4.219 -4.692 0.503
-5.106 -4.807 -0.383
-4.865 -4.773 -0.069
-4.691 -4.875 0.165
-4.761 -5.091 0.281
-4.374 -4.507 0.160
-3.659 -4.161 0.533
-3.814 -4.332 0.549
-7.648 -5.207 -2.495
-4.212 -4.564 0.380
-4.212 -4.563 0.380
-7.648 -5.207 -2.495
-4.820 -4.769 -0.019
-4.747 -5.093 0.303
-4.790 -4.602 -0.170
-3.817 -4.180 0.394
-3.914 -4.560 0.676
-14.275 -9.698 -4.684
-6.913 -6.520 -0.362
-7.648 -5.206 -2.495
-4.865 -4.773 -0.070
-4.761 -5.091 0.281
-7.648 -5.207 -2.495
-7.648 -5.206 -2.495
-4.791 -4.602 -0.170
-4.864 -4.878 0.044
-3.510 -4.217 0.738
-5.114 -4.815 -0.380
-5.114 -4.815 -0.380
-7.648 -5.207 -2.495
-4.219 -4.692 0.503
-7.264 -5.222 -2.092
-6.246 -6.585 0.353
-13.056 -7.779 -5.309
-4.519 -4.771 0.283
-4.820 -4.769 -0.019
-13.163 -7.788 -5.406
-5.114 -4.814 -0.380
-4.820 -4.769 -0.019
-3.899 -4.621 0.752
-7.718 -8.302 0.613
-6.983 -6.560 -0.395
-4.524 -5.103 0.563
-12.846 -7.765 -5.216
-4.863 -4.878 0.045
-4.791 -4.602 -0.170
-6.973 -7.343 0.371
-8.695 -8.482 -0.242
-4.790 -4.602 -0.170
-4.212 -4.564 0.380
-4.442 -4.543 0.128
-4.863 -4.878 0.045
-4.779 -4.704 -0.046
-4.864 -4.773 -0.069
-3.892 -4.598 0.737
-7.647 -5.207 -2.494
-4.832 -4.774 -0.036
-4.592 -4.870 0.254
-4.865 -4.773 -0.070
-4.865 -4.773 -0.070
-4.747 -5.093 0.303
-4.831 -4.774 -0.035
-4.212 -4.564 0.380
-4.747 -5.093 0.303
-5.114 -4.815 -0.380
-5.114 -4.814 -0.380
-3.694 -4.149 0.484
-7.054 -6.517 -0.512
-14.676 -9.750 -4.905
-5.114 -4.815 -0.380
-6.470 -4.011 -2.546
-4.870 -4.773 -0.076
-4.526 -5.103 0.562
-4.766 -4.471 -0.278
-5.114 -4.815 -0.380
-4.831 -4.774 -0.036
-5.431 -5.442 0.043
-5.071 -4.411 -0.643
-4.761 -5.091 0.281
-4.865 -4.773 -0.070
-5.383 -6.067 0.693
-4.791 -4.602 -0.170
-3.817 -4.180 0.393
-3.817 -4.180 0.393
-4.820 -4.769 -0.019
-4.761 -5.091 0.281
-4.592 -4.870 0.254
-4.592 -4.870 0.254
-4.747 -5.093 0.303
-7.647 -5.207 -2.494
-5.114 -4.815 -0.380
-5.114 -4.815 -0.380
-5.928 -6.481 0.569
-4.863 -4.878 0.045
-4.458 -4.707 0.271
-4.747 -5.093 0.302
-4.865 -4.773 -0.070
-4.865 -4.773 -0.070
-5.383 -6.068 0.694
-4.865 -4.773 -0.070
-13.163 -7.788 -5.405
-5.114 -4.815 -0.380
-4.815 -4.602 -0.194
-4.863 -4.878 0.045
-5.114 -4.815 -0.380
-4.219 -4.692 0.503
-5.465 -5.443 0.011
-5.465 -5.443 0.011
-4.747 -5.093 0.302
-6.906 -6.520 -0.355
-4.863 -4.878 0.045
-7.928 -5.871 -2.025
-7.647 -5.207 -2.494
-4.820 -4.769 -0.019
-4.894 -2.989 -2.366
-3.909 -4.564 0.684
-7.647 -5.207 -2.494
-5.114 -4.815 -0.380
-7.404 -5.629 -1.778
-3.836 -4.684 0.879
-4.863 -4.878 0.045
-4.863 -4.878 0.045
-7.081 -6.491 -0.568
-4.519 -4.771 0.284
-13.194 -7.782 -5.442
-3.701 -4.164 0.494
-5.106 -4.807 -0.383
-3.626 -4.159 0.565
-4.529 -5.091 0.547
-3.909 -4.564 0.685
-3.909 -4.562 0.683
-4.865 -4.773 -0.069
-4.458 -4.707 0.271
-4.815 -4.602 -0.194
-4.392 -4.964 0.603
-5.114 -4.815 -0.380
-4.761 -5.091 0.281
-4.592 -4.870 0.254
-4.592 -4.870 0.254
-4.761 -5.091 0.281
-7.677 -8.260 0.612
-5.114 -4.814 -0.380
-5.786 -5.956 0.202
-3.898 -4.561 0.693
-5.114 -4.815 -0.380
-13.152 -7.792 -5.391
-4.544 -4.896 0.370
-3.802 -4.384 0.608
-6.838 -6.420 -0.388
-4.761 -5.091 0.281
-4.820 -4.769 -0.019
-4.400 -5.074 0.696
-3.681 -4.156 0.504
-4.820 -4.769 -0.019
-3.897 -4.561 0.694
-4.766 -4.470 -0.278
-4.462 -4.697 0.265
-4.519 -4.771 0.284
-7.739 -8.423 0.715
-4.400 -5.074 0.696
-4.400 -5.074 0.696
-6.625 -6.374 -0.220
-4.863 -4.878 0.046
-3.897 -4.561 0.694
-3.909 -4.563 0.684
-8.102 -5.660 -2.419
-3.897 -4.561 0.694
-3.510 -4.218 0.740
-6.838 -6.419 -0.389
-4.864 -4.773 -0.069
-9.295 -9.814 0.546
-4.863 -4.878 0.046
-4.791 -4.602 -0.170
-13.194 -7.782 -5.443
-4.864 -4.773 -0.069
-3.909 -4.568 0.689
-3.694 -4.149 0.484
-4.864 -4.773 -0.069
-4.864 -4.773 -0.069
-4.815 -4.602 -0.194
-6.498 -4.348 -2.226
-4.391 -4.963 0.603
-7.492 -7.419 -0.042
-3.908 -4.561 0.682
-6.838 -6.419 -0.388
-9.294 -9.814 0.547
-5.114 -4.815 -0.380
-4.865 -4.773 -0.069
-13.163 -7.788 -5.405
-4.865 -4.773 -0.069
-5.408 -6.438 1.057
-3.671 -4.112 0.472
-5.711 -6.293 0.560
-5.076 -4.809 -0.344
-4.691 -4.875 0.165
-4.400 -5.074 0.696
-7.055 -6.516 -0.514
-3.756 -4.770 0.998
-4.863 -4.878 0.046
-4.863 -4.878 0.046
-3.693 -4.427 0.765
-3.693 -4.441 0.779
-4.812 -4.707 -0.076
-4.391 -4.963 0.603
-4.990 -5.639 0.680
-6.454 -4.015 -2.525
-3.659 -4.161 0.533
-7.262 -5.224 -2.088
-3.909 -4.562 0.682
-4.400 -5.074 0.697
-7.265 -5.231 -2.084
-4.832 -4.774 -0.036
-5.953 -6.204 0.275
-4.865 -4.773 -0.070
-5.713 -6.263 0.573
-7.751 -8.503 0.782
-5.079 -4.808 -0.348
-4.865 -4.773 -0.070
-5.928 -6.481 0.569
-4.219 -4.691 0.502
-14.688 -9.752 -4.917
-8.613 -5.960 -2.626
-4.518 -4.771 0.284
-8.129 -5.650 -2.456
-9.294 -9.814 0.547
-4.865 -4.773 -0.070
-4.863 -4.878 0.045
-4.525 -5.103 0.563
-5.107 -4.806 -0.384
-4.863 -4.878 0.045
-3.836 -4.687 0.882
-4.894 -2.989 -2.366
-4.831 -4.774 -0.036
-4.865 -4.773 -0.070
-5.114 -4.815 -0.380
-3.694 -4.149 0.484
-4.863 -4.878 0.045
-6.776 -6.430 -0.316
-7.647 -5.207 -2.494
-5.695 -5.807 0.145
-4.863 -4.878 0.045
-11.976 -7.731 -4.231
-4.831 -4.774 -0.036
-4.452 -4.890 0.426
-4.219 -4.692 0.503
-8.102 -5.660 -2.418
-6.597 -6.833 0.260
-3.694 -4.149 0.484
-7.717 -5.360 -2.379
-4.391 -4.963 0.603
-3.693 -4.442 0.780
-9.322 -9.817 0.525
-7.263 -5.222 -2.090
-7.263 -5.222 -2.090
-8.613 -5.960 -2.626
-6.935 -6.715 -0.291
-5.114 -4.815 -0.380
-13.163 -7.788 -5.405
-3.814 -4.332 0.548
-5.106 -4.807 -0.383
-4.863 -4.878 0.045
-4.522 -4.873 0.340
-3.898 -4.561 0.693
-3.693 -4.430 0.768
-7.647 -5.207 -2.494
-7.689 -8.415 0.756
-4.452 -4.889 0.426
-5.383 -6.067 0.693
-6.838 -6.420 -0.388
-5.114 -4.815 -0.380
-3.781 -4.218 0.466
-5.423 -5.442 0.051
-5.604 -5.688 0.114
-6.897 -6.519 -0.347
-13.194 -7.782 -5.442
-4.863 -4.878 0.045
-9.295 -9.814 0.546
-4.898 -5.834 0.964
-3.898 -4.561 0.694
-4.389 -4.961 0.604
-6.849 -6.508 -0.311
-6.471 -4.011 -2.546
-3.898 -4.561 0.692
-5.426 -5.442 0.049
-4.990 -5.644 0.685
-6.838 -6.420 -0.387
-4.557 -4.519 -0.043
-4.863 -4.878 0.045
-4.865 -4.773 -0.070
-13.163 -7.788 -5.405
-4.831 -4.774 -0.036
-3.898 -4.561 0.692
-4.863 -4.878 0.045
-6.983 -6.562 -0.394
-13.152 -7.791 -5.391
-3.694 -4.439 0.776
-7.647 -5.207 -2.494
-4.864 -4.878 0.045
-3.910 -4.562 0.682
-5.079 -4.809 -0.346
-5.101 -6.797 1.727
-4.400 -5.074 0.696
-7.647 -5.207 -2.494
-5.114 -4.815 -0.380
-4.522 -4.873 0.340
-5.604 -5.688 0.114
-3.897 -4.561 0.694
-5.114 -4.815 -0.380
-7.647 -5.207 -2.494
-3.910 -4.564 0.685
-7.480 -5.391 -2.144
-4.892 -4.877 0.015
-5.106 -4.807 -0.382
-8.129 -5.650 -2.456
-4.348 -4.512 0.192
-3.652 -4.171 0.550
-3.693 -4.433 0.771
-4.831 -4.774 -0.036
-3.898 -4.561 0.693
-4.512 -4.816 0.323
-3.694 -4.149 0.484
-4.198 -4.400 0.233
-4.896 -4.877 0.012
-5.114 -4.815 -0.380
-9.294 -9.814 0.547
-4.865 -4.773 -0.069
-4.831 -4.774 -0.035
-4.831 -4.774 -0.036
-3.898 -4.561 0.693
-7.477 -5.392 -2.141
-4.522 -4.873 0.340
-4.348 -4.512 0.192
-6.906 -6.520 -0.356
-7.075 -5.423 -1.708
-4.766 -4.470 -0.278
-5.114 -4.815 -0.380
-5.114 -4.815 -0.380
-3.909 -4.562 0.683
-4.347 -4.501 0.181
-4.766 -4.470 -0.278
-4.534 -4.699 0.196
-5.106 -4.807 -0.382
-4.534 -4.699 0.196
-4.522 -4.873 0.340
-4.534 -4.699 0.196
-4.990 -5.644 0.685
-4.529 -4.914 0.400
-3.693 -4.436 0.774
-5.076 -4.809 -0.344
-4.199 -4.400 0.233
-3.814 -4.332 0.548
-3.682 -4.156 0.504
-4.367 -4.505 0.166
-5.604 -5.688 0.115
-3.757 -4.770 0.997
-5.075 -5.845 0.797
-5.075 -5.845 0.797
-5.003 -5.923 0.934
-7.647 -5.207 -2.494
-3.910 -4.562 0.682
-4.864 -4.878 0.045
-9.322 -9.817 0.525
-3.757 -4.770 0.997
-3.682 -4.155 0.504
-7.478 -5.391 -2.142
-4.689 -4.463 -0.202
-3.757 -4.770 0.997
-12.204 -7.817 -4.363
-4.348 -4.512 0.192
-4.831 -4.774 -0.036
-4.534 -4.699 0.196
-5.606 -5.158 -0.416
-4.463 -4.697 0.265
-4.198 -4.400 0.233
-5.114 -4.815 -0.380
-3.851 -4.242 0.408
-4.219 -4.692 0.503
-5.930 -6.481 0.568
-3.909 -4.562 0.684
-3.781 -4.218 0.466
-4.895 -4.877 0.012
-4.863 -4.878 0.046
-4.533 -4.699 0.197
-3.897 -4.561 0.694
-3.908 -4.563 0.684
-4.863 -4.878 0.046
-7.476 -5.392 -2.139
-5.114 -4.815 -0.380
-3.909 -4.563 0.684
-7.647 -5.207 -2.494
-4.690 -4.465 -0.201
-3.898 -4.561 0.692
-4.112 -4.804 0.721
-5.604 -5.688 0.114
-3.671 -4.112 0.472
-6.690 -6.371 -0.289
-4.689 -4.465 -0.200
-3.694 -4.149 0.484
-4.863 -4.878 0.045
-4.831 -4.774 -0.036
-7.647 -5.207 -2.494
-8.210 -5.642 -2.546
-14.723 -9.752 -4.955
-7.647 -5.207 -2.494
-7.464 -5.625 -1.842
-3.683 -4.111 0.459
-4.688 -5.762 1.025
-5.075 -5.845 0.797
-4.523 -4.873 0.339
-4.864 -4.878 0.045
-4.534 -4.699 0.195
-5.079 -4.809 -0.346
-7.480 -5.391 -2.145
-4.554 -4.774 0.251
-4.251 -4.703 0.482
-5.079 -4.827 -0.335
-3.897 -4.561 0.694
-7.927 -5.872 -2.024
-8.537 -5.608 -2.903
-8.392 -5.461 -2.962
-8.310 -5.440 -2.846
-8.376 -5.433 -2.919
-8.376 -5.433 -2.919
-8.314 -5.465 -2.881
-8.537 -5.608 -2.903
-8.314 -5.465 -2.881
-8.875 -5.942 -2.907
-8.790 -5.946 -2.817
-8.314 -5.465 -2.881
-8.457 -5.690 -2.746
-8.875 -5.942 -2.907
-8.875 -5.942 -2.907
-8.583 -5.470 -3.085
-8.392 -5.461 -2.963
-8.535 -5.560 -2.956
-8.384 -5.696 -2.666
-7.464 -5.625 -1.842
-8.457 -5.690 -2.746
-8.392 -5.461 -2.963
-5.789 -5.956 0.199
-5.787 -5.956 0.201
-8.391 -5.461 -2.962
-8.391 -5.461 -2.962
-8.627 -5.537 -3.071
-8.535 -5.560 -2.955
-8.385 -5.463 -2.954
-5.695 -5.808 0.145
-8.392 -5.461 -2.963
-8.537 -5.608 -2.904
-8.457 -5.690 -2.746
-8.583 -5.470 -3.085
-5.426 -5.442 0.049
-8.315 -5.464 -2.883
-8.392 -5.461 -2.964
-8.876 -5.942 -2.908
-7.462 -5.625 -1.841
-7.360 -5.431 -1.916
-8.876 -5.942 -2.908
-8.315 -5.464 -2.883
-5.426 -5.442 0.049
-7.462 -5.625 -1.841
-5.930 -6.481 0.568
-8.691 -8.483 -0.239
-5.426 -5.442 0.049
-8.875 -5.942 -2.907
-7.926 -5.872 -2.023
-7.360 -5.431 -1.916
-5.788 -5.955 0.200
-8.457 -5.690 -2.746
-5.426 -5.442 0.049
-7.462 -5.625 -1.841
-5.786 -5.956 0.202
-5.426 -5.442 0.049
-8.376 -5.433 -2.919
-7.926 -5.872 -2.023
-7.360 -5.431 -1.916
-5.695 -5.808 0.145
-5.695 -5.808 0.145
-7.926 -5.872 -2.023
-8.392 -5.461 -2.963
-7.733 -8.483 0.780
-8.601 -5.602 -2.974
-8.872 -5.942 -2.903
-8.373 -5.433 -2.915
-8.496 -5.471 -2.998
-8.786 -5.947 -2.813
-8.872 -5.942 -2.904
-8.872 -5.942 -2.904
-5.787 -5.956 0.201
-5.426 -5.442 0.049
-8.872 -5.942 -2.903
-5.694 -5.808 0.146
-7.613 -4.609 -3.050
-7.299 -5.771 -1.583
-8.624 -5.537 -3.067
-8.311 -5.466 -2.877
-7.924 -5.872 -2.021
-7.924 -5.872 -2.021
-8.128 -5.651 -2.455
-7.461 -5.626 -1.839
-8.625 -5.537 -3.067
-8.786 -5.947 -2.813
-7.359 -5.431 -1.914
-8.580 -5.471 -3.081
-5.467 -5.642 0.206
-8.602 -5.601 -2.975
-5.426 -5.442 0.049
-5.197 -5.365 0.199
-8.601 -5.602 -2.974
-5.787 -5.956 0.201
-8.786 -5.947 -2.813
-7.541 -4.617 -2.967
-8.454 -5.691 -2.743
-8.454 -5.691 -2.743
-8.454 -5.691 -2.743
-8.454 -5.691 -2.743
-7.359 -5.431 -1.914
-8.625 -5.537 -3.067
-5.426 -5.442 0.049
-8.872 -5.942 -2.903
-14.696 -9.739 -4.943
-5.945 -6.202 0.281
-7.729 -8.363 0.663
-7.923 -5.872 -2.020
-7.540 -4.617 -2.966
-8.389 -5.462 -2.958
-8.454 -5.691 -2.742
-5.426 -5.442 0.049
-5.423 -5.442 0.052
-8.872 -5.942 -2.903
-5.426 -5.442 0.049
-8.872 -5.942 -2.903
-7.540 -4.617 -2.966
-7.924 -5.872 -2.020
-5.694 -5.808 0.146
-8.533 -5.609 -2.899
-13.906 -9.466 -4.511
-8.311 -5.466 -2.877
-5.426 -5.442 0.049
-8.786 -5.947 -2.813
-8.389 -5.462 -2.959
-6.775 -6.430 -0.315
-5.423 -5.442 0.052
-5.467 -5.642 0.207
-7.541 -4.617 -2.967
-7.541 -4.617 -2.967
-6.848 -6.508 -0.310
-8.871 -5.942 -2.902
-14.697 -9.753 -4.928
-7.924 -5.872 -2.020
-7.541 -4.617 -2.967
-7.613 -4.609 -3.050
-7.613 -4.609 -3.050
-6.775 -6.430 -0.315
-7.494 -4.628 -2.978
-8.389 -5.462 -2.959
-6.795 -4.383 -2.497
-6.795 -4.383 -2.497
-5.859 -5.709 -0.134
-6.794 -4.383 -2.496
-5.683 -5.808 0.157
-6.982 -6.560 -0.394
-8.786 -5.947 -2.813
-8.389 -5.462 -2.959
-8.786 -5.947 -2.813
-8.610 -5.961 -2.622
-7.359 -5.431 -1.914
-8.601 -5.602 -2.974
-14.686 -9.753 -4.918
-7.460 -5.626 -1.838
-6.795 -4.383 -2.496
-6.795 -4.383 -2.496
-7.359 -5.431 -1.914
-5.196 -5.365 0.199
-7.359 -5.431 -1.914
-7.460 -5.626 -1.838
-7.400 -5.629 -1.774
-5.411 -5.384 0.003
-5.467 -5.642 0.207
-6.775 -6.430 -0.315
-8.128 -5.651 -2.455
-7.924 -5.872 -2.021
-8.373 -5.433 -2.915
-7.732 -8.368 0.668
-7.460 -5.626 -1.837
-6.919 -6.732 -0.249
-6.775 -6.430 -0.315
-7.924 -5.872 -2.020
-8.531 -5.560 -2.951
-6.795 -4.383 -2.496
-8.871 -5.942 -2.902
-7.612 -4.609 -3.049
-7.924 -5.872 -2.020
-8.454 -5.691 -2.742
-7.924 -5.872 -2.020
-14.686 -9.753 -4.919
-6.775 -6.430 -0.315
-6.775 -6.430 -0.315
-6.775 -6.430 -0.315
-7.924 -5.872 -2.020
-7.924 -5.872 -2.020
-5.435 -5.524 0.121
-8.128 -5.651 -2.455
-7.461 -5.626 -1.838
-7.924 -5.872 -2.021
-7.494 -4.628 -2.978
-8.128 -5.651 -2.455
-8.128 -5.651 -2.455
-5.423 -5.442 0.052
-5.426 -5.442 0.049
-7.460 -5.626 -1.838
-5.412 -5.379 -0.003
-8.128 -5.651 -2.455
-8.128 -5.651 -2.455
-7.924 -5.872 -2.021
-7.461 -5.626 -1.838
-8.786 -5.947 -2.813
-7.461 -5.626 -1.838
-5.788 -5.956 0.199
-8.128 -5.651 -2.455
-7.401 -5.629 -1.774
-7.460 -5.626 -1.838
-8.786 -5.947 -2.813
-8.373 -5.433 -2.915
-8.872 -5.942 -2.903
-6.982 -6.560 -0.395
-6.423 -6.130 -0.267
-8.445 -5.566 -2.860
-6.935 -6.715 -0.291
-8.197 -5.616 -2.611
-7.924 -5.872 -2.020
-7.312 -5.439 -1.860
-7.460 -5.626 -1.838
-5.788 -5.956 0.199
-5.423 -5.442 0.052
-6.739 -4.395 -2.428
-7.924 -5.872 -2.020
-7.612 -4.609 -3.050
-8.128 -5.651 -2.454
-8.786 -5.947 -2.813
-7.924 -5.872 -2.021
-8.786 -5.947 -2.813
-5.787 -5.956 0.201
-8.454 -5.691 -2.742
-8.389 -5.462 -2.958
-7.359 -5.431 -1.914
-7.541 -4.617 -2.967
-7.613 -4.609 -3.050
-5.423 -5.442 0.052
-8.872 -5.942 -2.903
-8.872 -5.942 -2.903
-7.924 -5.872 -2.020
-7.359 -5.431 -1.914
-7.924 -5.872 -2.020
-7.972 -5.679 -2.269
-5.859 -5.709 -0.134
-7.358 -5.431 -1.913
-5.422 -5.442 0.052
-7.749 -8.523 0.804
-7.923 -5.872 -2.019
-5.703 -6.260 0.579
-14.697 -9.753 -4.928
-8.624 -5.537 -3.066
-8.871 -5.942 -2.902
-7.359 -5.431 -1.914
-5.788 -5.956 0.200
-7.612 -4.609 -3.050
-7.612 -4.609 -3.050
-14.697 -9.754 -4.927
-6.795 -4.383 -2.496
-7.924 -5.872 -2.020
-7.612 -4.609 -3.050
-7.460 -5.626 -1.838
-6.795 -4.383 -2.496
-7.924 -5.872 -2.020
-7.359 -5.431 -1.914
-5.467 -5.642 0.207
-5.423 -5.442 0.052
-5.423 -5.442 0.052
-5.467 -5.642 0.207
-7.612 -4.609 -3.050
-7.922 -5.872 -2.019
-8.867 -5.943 -2.898
-7.922 -5.872 -2.019
-7.609 -4.610 -3.045
-7.609 -4.610 -3.045
-6.793 -4.383 -2.495
-8.867 -5.943 -2.898
-8.451 -5.691 -2.739
-7.545 -4.616 -2.972
-8.876 -5.942 -2.908
-7.926 -5.872 -2.023
-7.926 -5.872 -2.023
-7.926 -5.872 -2.023
-8.628 -5.537 -3.072
-7.462 -5.625 -1.841
-5.423 -5.442 0.052
-7.462 -5.625 -1.841
-5.198 -5.365 0.198
-5.423 -5.442 0.052
-8.457 -5.690 -2.746
-8.457 -5.690 -2.746
-7.926 -5.872 -2.023
-7.462 -5.625 -1.841
-7.462 -5.625 -1.841
-7.498 -4.627 -2.983
-7.926 -5.872 -2.023
-7.926 -5.872 -2.023
-5.788 -5.955 0.200