-9.476 -9.270 -0.461
-13.831 -12.371 -1.536
-11.177 -8.853 -2.341
-11.177 -8.853 -2.341
-9.726 -9.212 -0.611
-9.726 -9.212 -0.611
-9.726 -9.212 -0.611
-13.563 -11.022 -2.783
-11.177 -8.853 -2.341
-13.273 -13.349 0.058
-9.387 -8.717 -0.734
-14.464 -11.603 -3.389
-12.592 -13.176 0.559
-14.464 -11.603 -3.389
-13.273 -13.349 0.058
-9.726 -9.212 -0.611
-9.726 -9.212 -0.611
-9.476 -9.267 -0.464
-8.940 -8.793 -0.178
-9.726 -9.212 -0.611
-8.940 -8.793 -0.178
-8.980 -8.593 -0.439
-9.498 -8.673 -0.931
-9.476 -9.267 -0.464
-12.592 -13.173 0.559
-8.995 -8.541 -0.497
-8.980 -8.593 -0.439
-9.742 -9.355 -0.433
-13.064 -13.358 0.281
-14.464 -11.603 -3.389
-9.726 -9.212 -0.611
-8.996 -8.537 -0.500
-9.476 -9.262 -0.468
-8.706 -8.582 -0.166
-8.718 -8.272 -0.511
-8.909 -8.626 -0.343
-8.996 -8.537 -0.500
-10.418 -8.101 -2.320
-9.498 -8.672 -0.931
-10.418 -8.101 -2.320
-11.177 -8.853 -2.341
-13.017 -13.456 0.423
-8.940 -8.795 -0.176
-8.718 -8.272 -0.511
-9.387 -8.717 -0.734
-8.993 -8.517 -0.516
-13.003 -13.065 -0.078
-9.498 -8.672 -0.931
-10.418 -8.101 -2.321
-17.302 -11.665 -5.597
-13.064 -13.358 0.281
-10.418 -8.101 -2.321
-13.273 -13.349 0.058
-8.718 -8.272 -0.511
-8.980 -8.593 -0.439
-9.498 -8.672 -0.931
-10.418 -8.101 -2.320
-13.064 -13.358 0.281
-8.706 -8.583 -0.166
-9.156 -8.720 -0.472
-10.147 -10.215 -0.071
-11.177 -8.853 -2.341
-9.498 -8.672 -0.931
-9.413 -9.456 0.010
-9.742 -9.353 -0.435
-13.017 -13.456 0.423
-8.995 -8.536 -0.500
-11.177 -8.853 -2.341
-13.017 -13.456 0.423
-12.896 -13.193 0.213
-8.718 -8.273 -0.510
-8.861 -8.272 -0.654
-13.273 -13.349 0.057
-8.980 -8.593 -0.439
-14.463 -11.603 -3.388
-9.740 -9.355 -0.432
-9.471 -8.678 -0.888
-13.273 -13.349 0.057
-9.741 -9.355 -0.432
-13.273 -13.349 0.057
-9.473 -9.265 -0.460
-11.175 -8.854 -2.338
-10.416 -8.102 -2.317
-8.980 -8.593 -0.439
-13.017 -13.456 0.423
-8.702 -8.589 -0.157
-13.003 -13.065 -0.078
-10.416 -8.102 -2.318
-9.046 -9.087 -0.008
-9.494 -8.677 -0.921
-9.494 -8.677 -0.921
-8.963 -8.529 -0.475
-17.305 -11.690 -5.573
-10.416 -8.102 -2.317
-9.370 -9.375 -0.026
-8.981 -8.499 -0.515
-10.416 -8.102 -2.317
-13.017 -13.456 0.423
-9.741 -9.354 -0.433
-13.017 -13.455 0.423
-9.158 -8.720 -0.473
-11.175 -8.854 -2.338
-10.416 -8.102 -2.317
-13.013 -13.464 0.436
-8.705 -8.584 -0.163
-13.831 -12.371 -1.536
-8.995 -8.537 -0.500
-13.066 -13.358 0.280
-13.064 -13.358 0.281
-10.416 -8.102 -2.317
-8.995 -8.537 -0.500
-8.638 -8.417 -0.274
-11.085 -8.876 -2.227
-9.380 -8.718 -0.726
-9.473 -9.265 -0.460
-8.346 -8.053 -0.351
-9.380 -8.718 -0.726
-8.713 -8.279 -0.498
-9.380 -8.718 -0.727
-10.412 -8.097 -2.320
-10.470 -8.091 -2.383
-17.305 -11.690 -5.573
-13.562 -11.023 -2.782
-8.705 -8.584 -0.164
-10.470 -8.091 -2.383
-11.175 -8.854 -2.338
-8.995 -8.537 -0.500
-8.995 -8.537 -0.500
-9.494 -8.677 -0.921
-9.411 -9.460 0.017
-10.470 -8.091 -2.383
-8.790 -8.268 -0.586
-13.003 -13.065 -0.078
-10.416 -8.103 -2.316
-9.494 -8.677 -0.921
-8.346 -8.053 -0.351
-10.470 -8.099 -2.373
-11.773 -11.770 -0.092
-8.790 -8.267 -0.587
-8.995 -8.537 -0.500
-8.995 -8.539 -0.498
-13.066 -13.358 0.280
-12.818 -12.856 0.058
-9.380 -8.718 -0.726
-13.273 -13.349 0.057
-10.416 -8.102 -2.317
-9.403 -9.149 -0.323
-9.494 -8.677 -0.921
-13.273 -13.350 0.058
-9.046 -9.087 -0.008
-8.713 -8.280 -0.498
-9.473 -9.265 -0.460
-10.329 -8.054 -2.307
-8.995 -8.537 -0.500
-9.740 -9.355 -0.432
-10.416 -8.102 -2.318
-10.470 -8.091 -2.383
-9.494 -8.678 -0.920
-10.416 -8.102 -2.318
-9.740 -9.355 -0.432
-8.713 -8.281 -0.497
-10.416 -8.102 -2.318
-9.740 -9.355 -0.432
-13.273 -13.348 0.057
-11.175 -8.854 -2.338
-10.416 -8.102 -2.317
-8.713 -8.280 -0.497
-9.494 -8.677 -0.921
-13.562 -11.023 -2.782
-13.064 -13.358 0.280
-10.416 -8.102 -2.318
-9.740 -9.356 -0.431
-8.995 -8.536 -0.500
-13.263 -13.357 0.075
-13.831 -12.371 -1.536
-13.003 -13.065 -0.078
-8.713 -8.280 -0.498
-8.995 -8.537 -0.500
-8.861 -8.272 -0.654
-9.158 -8.720 -0.473
-9.740 -9.355 -0.432
-9.493 -8.676 -0.922
-8.995 -8.537 -0.500
-8.995 -8.537 -0.500
-8.713 -8.279 -0.499
-10.416 -8.102 -2.317
-9.150 -9.074 -0.129
-11.175 -8.854 -2.338
-13.273 -13.349 0.057
-9.150 -9.074 -0.129
-10.416 -8.102 -2.317
-8.713 -8.279 -0.499
-13.017 -13.456 0.422
-9.773 -8.343 -2.108
-8.704 -8.583 -0.163
-10.416 -8.102 -2.317
-13.273 -13.349 0.057
-9.011 -8.920 -0.158
-9.493 -8.677 -0.921
-8.994 -8.532 -0.505
-10.799 -10.659 -0.232
-9.217 -7.266 -1.936
-12.480 -12.717 -0.068
-8.980 -8.593 -0.439
-13.017 -13.456 0.422
-8.995 -8.536 -0.500
-9.185 -8.111 -1.107
-13.273 -13.349 0.057
-13.017 -13.455 0.422
-11.085 -8.876 -2.227
-10.470 -8.091 -2.382
-13.831 -12.371 -1.536
-8.938 -8.793 -0.176
-9.413 -9.497 -0.192
-9.217 -7.265 -1.937
-12.593 -13.178 0.560
-9.494 -8.677 -0.921
-9.680 -9.217 -0.554
-8.980 -8.593 -0.439
-13.064 -13.358 0.281
-13.273 -13.349 0.057
-8.713 -8.279 -0.498
-13.273 -13.349 0.057
-10.416 -8.102 -2.318
-8.993 -8.531 -0.505
-13.017 -13.456 0.423
-13.017 -13.456 0.423
-9.336 -8.724 -0.673
-8.980 -8.593 -0.439
-8.939 -8.795 -0.175
-9.151 -9.074 -0.130
-12.081 -12.796 0.618
-13.017 -13.455 0.422
-8.996 -8.537 -0.500
-9.741 -9.354 -0.433
-9.133 -8.716 -0.454
-10.416 -8.102 -2.318
-9.158 -8.720 -0.473
-13.063 -13.357 0.280
-10.676 -9.747 -1.095
-13.273 -13.349 0.057
-9.382 -8.717 -0.729
-10.416 -8.102 -2.318
-10.416 -8.102 -2.318
-12.593 -13.176 0.559
-9.721 -9.213 -0.606
-13.273 -13.349 0.058
-8.940 -8.794 -0.177
-10.418 -8.101 -2.320
-9.155 -9.075 -0.133
-10.418 -8.101 -2.320
-8.718 -8.272 -0.511
-9.419 -9.495 -0.200
-10.418 -8.101 -2.320
-9.741 -9.358 -0.429
-8.706 -8.582 -0.167
-9.742 -9.354 -0.434
-9.051 -9.088 -0.012
-9.832 -9.858 -0.141
-9.498 -8.672 -0.931
-8.980 -8.593 -0.439
-8.980 -8.593 -0.439
-10.418 -8.101 -2.320
-9.155 -9.075 -0.133
-8.718 -8.271 -0.512
-12.592 -13.176 0.559
-10.418 -8.102 -2.320
-8.996 -8.537 -0.500
-10.418 -8.101 -2.321
-9.498 -8.672 -0.931
-9.051 -9.087 -0.013
-9.498 -8.672 -0.931
-9.155 -9.075 -0.133
-8.980 -8.593 -0.439
-10.418 -8.101 -2.320
-8.996 -8.537 -0.500
-13.268 -13.338 0.057
-13.831 -12.371 -1.536
-8.980 -8.593 -0.439
-10.418 -8.101 -2.320
-8.702 -8.589 -0.156
-13.021 -13.456 0.419
-9.150 -9.074 -0.129
-9.370 -6.870 -2.500
-13.017 -13.456 0.422
-9.380 -8.717 -0.726
-11.110 -8.894 -2.267
-9.150 -9.074 -0.129
-10.326 -8.122 -2.209
-9.157 -8.720 -0.473
-13.066 -13.356 0.278
-8.346 -8.053 -0.351
-10.416 -8.101 -2.318
-12.979 -13.347 0.325
-8.713 -8.280 -0.498
-8.995 -8.537 -0.500
-8.704 -8.584 -0.163
-8.704 -8.584 -0.163
-13.064 -13.358 0.281
-13.017 -13.456 0.422
-8.694 -8.559 -0.174
-8.980 -8.593 -0.439
-13.562 -11.023 -2.782
-9.410 -9.461 0.017
-9.381 -8.718 -0.727
-9.473 -9.264 -0.462
-8.995 -8.537 -0.500
-8.346 -8.053 -0.351
-8.995 -8.537 -0.500
-9.251 -7.249 -1.986
-9.046 -9.087 -0.008
-9.150 -9.076 -0.124
-13.017 -13.456 0.422
-9.251 -7.249 -1.985
-8.995 -8.537 -0.500
-10.416 -8.102 -2.317
-8.980 -8.593 -0.439
-8.995 -8.537 -0.500
-9.494 -8.677 -0.921
-10.396 -8.091 -2.317
-13.003 -13.065 -0.078
-9.150 -9.074 -0.129
-10.106 -10.521 -0.226
-13.273 -13.349 0.057
-13.020 -13.319 0.292
-8.995 -8.537 -0.500
-9.473 -9.269 -0.458
-9.735 -9.331 -0.449
-8.346 -8.053 -0.351
-8.995 -8.537 -0.500
-8.995 -8.537 -0.500
-9.046 -9.087 -0.008
-8.980 -8.593 -0.439
-10.416 -8.102 -2.317
-9.150 -9.074 -0.129
-9.046 -9.087 -0.008
-10.416 -8.102 -2.318
-8.520 -8.168 -0.383
-8.980 -8.593 -0.438
-9.473 -9.266 -0.460
-8.909 -8.624 -0.345
-8.980 -8.594 -0.438
-8.995 -8.537 -0.500
-8.980 -8.593 -0.438
-9.251 -7.249 -1.985
-9.217 -7.266 -1.936
-9.158 -8.720 -0.473
-8.980 -8.593 -0.439
-12.592 -13.171 0.553
-9.494 -8.677 -0.921
-9.046 -9.087 -0.008
-9.721 -9.213 -0.604
-8.346 -8.053 -0.351
-9.157 -8.720 -0.473
-9.721 -9.214 -0.604
-9.741 -9.355 -0.432
-8.995 -8.537 -0.500
-8.346 -8.053 -0.351
-10.416 -8.099 -2.320
-9.741 -9.355 -0.432
-9.494 -8.677 -0.921
-8.861 -8.272 -0.654
-8.911 -8.632 -0.339
-10.240 -7.842 -2.422
-10.416 -8.102 -2.317
-11.175 -8.854 -2.338
-8.995 -8.536 -0.500
-9.158 -8.720 -0.473
-10.416 -8.102 -2.317
-8.980 -8.594 -0.438
-8.713 -8.279 -0.498
-10.416 -8.102 -2.317
-8.713 -8.279 -0.499
-8.995 -8.537 -0.500
-8.995 -8.537 -0.500
-9.150 -9.074 -0.129
-8.995 -8.537 -0.500
-9.720 -9.214 -0.604
-9.046 -9.087 -0.008
-9.157 -8.720 -0.473
-12.593 -13.177 0.560
-8.713 -8.279 -0.499
-9.133 -8.716 -0.454
-8.938 -8.795 -0.175
-13.017 -13.456 0.423
-9.158 -8.721 -0.473
-9.493 -8.677 -0.921
-8.861 -8.272 -0.654
-9.158 -8.720 -0.473
-9.157 -8.720 -0.473
-8.995 -8.537 -0.500
-8.980 -8.593 -0.439
-9.046 -9.087 -0.008
-10.416 -8.102 -2.317
-8.995 -8.537 -0.500
-13.003 -13.065 -0.078
-8.713 -8.280 -0.497
-9.046 -9.088 -0.007
-11.382 -11.501 0.021
-8.980 -8.593 -0.438
-13.257 -13.346 0.075
-8.995 -8.537 -0.500
-8.156 -8.018 -0.152
-13.064 -13.358 0.281
-9.720 -9.214 -0.604
-8.713 -8.279 -0.498
-8.938 -8.793 -0.176
-9.740 -9.357 -0.430
-8.995 -8.537 -0.500
-13.064 -13.358 0.281
-8.713 -8.280 -0.498
-12.481 -12.723 0.263
-8.980 -8.594 -0.438
-8.596 -8.288 -0.336
-8.995 -8.537 -0.500
-10.416 -8.102 -2.318
-9.132 -8.715 -0.454
-11.563 -11.899 0.121
-8.346 -8.053 -0.351
-8.995 -8.537 -0.500
-13.017 -13.456 0.422
-8.713 -8.278 -0.499
-8.346 -8.053 -0.351
-8.713 -8.279 -0.498
-13.017 -13.456 0.422
-10.416 -8.102 -2.317
-8.919 -8.385 -0.582
-13.267 -13.349 0.055
-9.740 -9.356 -0.431
-10.416 -8.102 -2.317
-8.995 -8.537 -0.500
-8.995 -8.536 -0.500
-8.995 -8.537 -0.500
-13.831 -12.371 -1.536
-8.713 -8.280 -0.498
-10.416 -8.102 -2.318
-9.491 -8.682 -0.917
-8.995 -8.537 -0.501
-13.267 -13.325 0.048
-8.705 -8.584 -0.163
-8.995 -8.537 -0.500
-7.785 -7.988 0.193
-8.346 -8.053 -0.351
-13.831 -12.371 -1.536
-8.980 -8.593 -0.439
-8.713 -8.279 -0.498
-8.995 -8.536 -0.500
-10.415 -8.086 -2.329
-9.158 -8.720 -0.473
-9.158 -8.720 -0.473
-13.273 -13.349 0.057
-8.713 -8.279 -0.498
-9.217 -7.265 -1.936
-13.266 -13.349 0.060
-8.995 -8.536 -0.500
-13.273 -13.349 0.057
-9.217 -7.265 -1.936
-8.995 -8.536 -0.500
-12.593 -13.176 0.559
-13.021 -13.458 0.421
-13.273 -13.349 0.057
-8.732 -8.589 -0.186
-13.021 -13.455 0.418
-8.713 -8.279 -0.498
-10.175 -7.732 -2.476
-9.410 -9.428 -0.020
-10.416 -8.102 -2.317
-10.416 -8.102 -2.317
-12.897 -13.350 0.451
-8.861 -8.271 -0.654
-9.217 -7.266 -1.936
-13.125 -13.187 0.050
-10.416 -8.102 -2.317
-10.416 -8.102 -2.317
-9.150 -9.074 -0.129
-10.416 -8.102 -2.318
-9.150 -9.074 -0.129
-8.964 -8.592 -0.425
-9.740 -9.356 -0.431
-10.416 -8.102 -2.317
-12.856 -12.903 -0.155
-12.593 -13.176 0.559
-8.911 -8.633 -0.338
-12.947 -13.248 0.283
-10.416 -8.102 -2.317
-13.052 -13.320 0.261
-8.733 -8.589 -0.187
-9.151 -9.073 -0.130
-8.712 -8.282 -0.495
-8.000 -8.027 0.016
-10.416 -8.102 -2.318
-9.494 -8.677 -0.921
-13.035 -13.032 0.012
-8.980 -8.593 -0.439
-9.218 -7.265 -1.938
-8.964 -8.592 -0.425
-8.967 -8.797 -0.200
-9.217 -7.265 -1.937
-9.149 -9.068 -0.136
-8.995 -8.534 -0.502
-10.417 -8.102 -2.318
-9.747 -9.359 -0.435
-9.153 -9.075 -0.131
-11.380 -11.574 -0.042
-8.977 -6.523 -2.615
-8.592 -8.349 -0.248
-8.953 -9.190 0.157
-13.262 -13.335 0.049
-8.964 -8.592 -0.425
-9.151 -9.074 -0.129
-10.416 -8.102 -2.317
-8.909 -8.626 -0.343
-8.907 -8.581 -0.378
-8.256 -7.980 -0.298
-8.941 -8.781 -0.191
-7.493 -7.597 0.001
-8.257 -7.980 -0.298
-11.710 -11.804 0.055
-10.418 -8.101 -2.320
-9.737 -9.214 -0.619
-9.723 -9.213 -0.607
-9.723 -9.213 -0.607
-10.418 -8.101 -2.321
-11.483 -11.963 -0.078
-9.410 -9.438 -0.008
-8.997 -8.536 -0.502
-13.274 -13.350 0.057
-10.418 -8.101 -2.321
-13.831 -12.371 -1.537
-10.403 -8.108 -2.299
-8.981 -8.593 -0.440
-8.974 -8.545 -0.478
-11.274 -11.360 0.006
-9.410 -9.435 -0.011
-8.706 -8.583 -0.165
-9.474 -9.256 -0.471
-13.008 -13.065 -0.083
-8.996 -8.536 -0.501
-6.970 -7.153 0.141
-9.737 -9.214 -0.619
-8.940 -8.795 -0.176
-8.981 -8.510 -0.515
-5.637 -5.859 0.176
-8.940 -8.793 -0.178
-6.882 -7.167 0.240
-9.503 -9.272 -0.477
-8.862 -8.271 -0.655
-10.472 -8.090 -2.385
-8.968 -8.798 -0.200
-6.218 -6.570 0.251
-8.723 -8.563 -0.203
-9.134 -8.715 -0.456
-6.882 -7.168 0.241
-12.134 -12.573 0.394
-13.268 -13.331 0.052
-8.586 -8.348 -0.243
-13.080 -12.778 -0.559
-5.636 -5.860 0.177
-8.003 -8.027 0.012
-6.798 -7.144 0.292
-7.371 -7.657 0.207
-9.748 -9.359 -0.436
-5.636 -5.859 0.176
-13.065 -13.358 0.280
-8.706 -8.583 -0.165
-8.997 -8.536 -0.502
-8.940 -8.793 -0.178
-9.519 -8.678 -0.934
-6.640 -6.904 0.217
-8.965 -8.592 -0.427
-8.997 -8.536 -0.502
-12.541 -13.014 0.491
-8.990 -8.538 -0.491
-12.993 -12.990 0.025
-6.218 -6.570 0.251
-9.504 -9.254 -0.495
-8.990 -8.525 -0.508
-8.706 -8.583 -0.166
-9.519 -8.678 -0.934
-9.519 -8.678 -0.934
-8.996 -8.534 -0.503
-12.586 -12.873 0.261
-9.544 -8.677 -0.968
-9.475 -9.269 -0.460
-6.640 -6.904 0.217
-9.742 -9.355 -0.434
-13.273 -13.342 0.051
-8.641 -8.408 -0.284
-9.722 -9.213 -0.606
-9.350 -8.726 -0.686
-9.118 -9.044 -0.171
-9.738 -9.214 -0.620
-9.424 -9.495 -0.204
-9.544 -8.676 -0.969
-8.385 -8.024 -0.434
-7.617 -7.606 -0.133
-7.186 -7.268 -0.022
-7.051 -7.447 0.356
-7.131 -7.461 0.288
-7.006 -7.279 0.234
-7.753 -7.651 -0.166
-6.876 -7.168 0.248
-6.945 -7.193 0.202
-7.753 -7.651 -0.166
-8.385 -8.024 -0.434
-7.558 -7.419 -0.266
-6.788 -7.138 0.296
-6.876 -7.168 0.248
-7.753 -7.651 -0.166
-7.449 -7.600 0.048
-7.186 -7.268 -0.022
-7.664 -7.652 -0.077
-7.003 -7.338 0.019
-6.788 -7.168 0.326
-7.186 -7.268 -0.022
-6.786 -7.133 0.292
-8.385 -8.024 -0.435
-7.186 -7.268 -0.022
-6.788 -7.155 0.313
-7.618 -7.593 -0.148
-7.665 -7.653 -0.077
-6.957 -7.084 0.080
-8.385 -8.024 -0.434
-7.186 -7.268 -0.022
-7.615 -7.630 -0.113
-7.449 -7.599 0.047
-7.689 -7.877 0.119
-6.967 -7.161 0.149
-7.618 -7.606 -0.133
-8.385 -8.024 -0.434
-7.448 -7.599 0.048
-7.448 -7.599 0.047
-7.421 -7.608 0.056
-7.414 -7.370 -0.145
-7.410 -7.657 0.101
-6.638 -6.905 0.219
-7.186 -7.268 -0.022
-6.837 -7.202 0.298
-6.639 -6.905 0.218
-7.448 -7.599 0.047
-7.448 -7.599 0.047
-6.968 -7.163 0.167
-7.385 -7.449 -0.132
-8.385 -8.024 -0.434
-7.448 -7.599 0.047
-6.788 -7.167 0.325
-6.945 -7.193 0.202
-7.448 -7.599 0.047
-7.753 -7.651 -0.166
-8.385 -8.025 -0.433
-7.684 -7.881 0.125
-7.448 -7.600 0.048
-6.806 -7.458 0.609
-7.630 -7.537 -0.184
-7.004 -7.337 0.019
-8.385 -8.024 -0.434
-7.617 -7.614 -0.126
-7.688 -7.864 0.107
-8.385 -8.024 -0.434
-7.479 -7.603 0.022
-7.400 -7.609 0.089
-6.639 -6.905 0.218
-7.007 -7.338 0.016
-8.102 -8.029 -0.153
-7.479 -7.600 0.017
-6.969 -7.189 0.175
-6.960 -7.164 0.156
-7.447 -6.949 -0.545
-7.654 -7.596 -0.155
-7.618 -7.600 -0.129
-6.966 -7.172 0.161
-8.102 -8.030 -0.152
-8.385 -8.023 -0.435
-7.004 -7.337 0.018
-7.753 -7.651 -0.166
-7.447 -7.604 0.054
-7.753 -7.651 -0.166
-8.385 -8.024 -0.434
-6.944 -7.006 0.013
-7.664 -7.652 -0.076
-6.180 -6.569 0.287
-7.615 -7.614 -0.123
-7.128 -7.355 -0.085
-7.449 -7.599 0.047
-7.004 -7.278 0.235
-6.639 -6.905 0.219
-6.788 -7.162 0.320
-8.385 -8.023 -0.435
-7.186 -7.268 -0.022
-7.435 -7.596 -0.016
-8.021 -7.967 -0.173
-7.448 -7.599 0.047
-6.858 -7.262 0.289
-6.839 -7.202 0.296
-7.042 -7.333 -0.023
-6.970 -7.192 0.176
-7.398 -7.802 0.357
-6.846 -7.191 0.294
-7.448 -7.599 0.047
-7.448 -7.599 0.047
-8.385 -8.024 -0.434
-7.186 -7.268 -0.022
-7.688 -7.885 0.133
-7.051 -7.447 0.355
-8.385 -8.024 -0.434
-7.415 -7.617 0.076
-6.639 -6.905 0.218
-6.639 -6.904 0.218
-7.004 -7.337 0.019
-7.004 -7.338 0.019
-6.683 -7.098 0.352
-7.416 -7.611 0.058
-8.385 -8.024 -0.434
-6.788 -7.176 0.334
-7.480 -7.600 0.013
-6.639 -6.905 0.219
-8.108 -8.029 -0.158
-6.639 -6.905 0.219
-7.478 -7.599 0.016
-6.876 -7.168 0.249
-6.839 -7.202 0.297
-7.387 -7.592 0.096
-7.471 -7.587 0.008
-7.684 -7.897 0.144
-7.448 -7.598 0.047
-7.654 -7.596 -0.155
-6.970 -7.192 0.176
-7.685 -7.866 0.113
-6.875 -7.168 0.249
-8.385 -8.024 -0.434
-7.753 -7.651 -0.166
-6.974 -7.172 0.159
-7.003 -7.352 0.034
-7.004 -7.336 0.018
-7.399 -7.801 0.355
-6.789 -7.167 0.324
-7.466 -7.660 0.118
-7.618 -7.600 -0.136
-6.874 -7.168 0.250
-6.940 -7.193 0.207
-7.471 -7.595 0.029
-6.874 -7.169 0.251
-8.305 -7.967 -0.443
-7.000 -7.337 0.021
-7.241 -6.957 -0.333
-6.852 -7.265 0.298
-8.386 -8.024 -0.435
-7.204 -7.088 -0.168
-7.449 -7.599 0.046
-7.003 -7.338 0.020
-6.977 -7.194 0.170
-7.479 -7.602 0.020
-6.977 -7.194 0.170
-8.386 -8.024 -0.435
-8.317 -7.962 -0.461
-8.386 -8.024 -0.434
-6.877 -7.168 0.248
-8.109 -8.029 -0.159
-6.858 -7.262 0.289
-7.449 -7.599 0.046
-6.182 -6.569 0.285
-8.385 -8.016 -0.445
-6.676 -6.915 0.192
-7.686 -7.866 0.113
-6.262 -6.541 0.232
-8.386 -8.023 -0.435
-7.003 -7.337 0.019
-6.909 -7.192 0.227
-7.003 -7.329 0.017
-7.042 -7.333 -0.023
-7.265 -7.459 0.115
-7.369 -7.659 0.214
-7.449 -7.599 0.046
-7.386 -7.448 -0.135
-8.023 -7.967 -0.173
-7.379 -7.467 -0.114
-7.001 -7.368 0.041
-7.128 -7.354 -0.086
-8.386 -8.025 -0.433
-6.684 -7.097 0.352
-7.686 -7.866 0.112
-6.721 -6.862 0.095
-6.999 -7.367 0.073
-6.639 -6.905 0.218
-7.382 -7.402 -0.169
-8.316 -7.961 -0.461
-7.187 -7.268 -0.022
-8.317 -7.962 -0.461
-7.487 -7.600 0.006
-7.646 -7.592 -0.151
-6.920 -7.193 0.218
-6.970 -7.191 0.176
-7.372 -7.560 -0.004
-8.108 -8.029 -0.158
-7.475 -7.595 0.014
-6.876 -7.168 0.248
-7.003 -7.337 0.019
-7.267 -7.447 0.102
-8.317 -7.962 -0.461
-7.685 -7.866 0.113
-6.952 -7.070 -0.156
-7.448 -7.600 0.049
-7.466 -7.660 0.119
-6.857 -7.262 0.289
-6.674 -6.915 0.193
-7.000 -7.374 0.033
-7.204 -7.088 -0.168
-8.386 -8.023 -0.435
-8.386 -8.024 -0.434
-6.909 -7.194 0.229
-6.639 -6.903 0.217
-7.442 -7.566 0.033
-7.448 -7.600 0.048
-7.685 -7.866 0.113
-7.368 -7.659 0.215
-6.735 -7.092 0.295
-8.315 -7.945 -0.474
-6.876 -7.168 0.249
-6.908 -7.118 0.158
-7.447 -7.602 0.050
-6.876 -7.168 0.248
-7.654 -7.596 -0.154
-7.096 -7.265 0.064
-7.447 -6.955 -0.540
-7.006 -7.337 0.016
-7.448 -7.599 0.047
-7.477 -7.600 0.021
-6.805 -7.170 0.312
-5.909 -6.020 0.062
-7.003 -7.337 0.019
-7.471 -7.586 0.013
-8.104 -8.029 -0.154
-7.682 -7.883 0.135
-7.616 -7.619 -0.122
-6.675 -6.914 0.191
-8.386 -8.025 -0.433
-7.362 -7.592 0.113
-8.308 -8.006 -0.409
-7.204 -7.087 -0.168
-8.386 -8.024 -0.434
-7.385 -7.445 -0.137
-7.445 -7.610 0.058
-8.386 -8.024 -0.434
-5.928 -6.024 0.049
-6.675 -6.913 0.190
-8.317 -7.962 -0.460
-7.646 -7.592 -0.154
-7.368 -7.526 -0.028
-6.639 -6.905 0.218
-7.096 -7.266 0.065
-7.385 -7.445 -0.136
-8.386 -8.024 -0.434
-6.190 -6.688 0.457
-6.675 -6.913 0.191
-6.688 -6.809 0.080
-7.449 -7.599 0.047
-6.970 -7.192 0.176
-7.448 -7.599 0.047
-7.246 -6.953 -0.341
-8.317 -7.962 -0.460
-7.448 -7.599 0.047
-6.675 -6.914 0.191
-6.639 -6.905 0.218
-7.682 -7.878 0.134
-6.639 -6.903 0.217
-6.803 -7.134 0.279
-7.677 -7.597 -0.178
-7.752 -7.651 -0.166
-8.386 -8.024 -0.434
-8.317 -7.962 -0.460
-7.241 -6.926 -0.358
-6.910 -7.169 0.215
-8.102 -8.029 -0.153
-6.639 -6.905 0.218
-8.386 -8.024 -0.434
-6.721 -7.095 0.314
-6.910 -7.169 0.215
-6.784 -7.121 0.283
-6.675 -6.914 0.191
-7.426 -7.493 -0.031
-6.789 -7.167 0.325
-7.379 -7.471 -0.093
-8.316 -7.964 -0.459
-8.316 -7.963 -0.458
-8.386 -8.024 -0.434
-8.316 -7.951 -0.479
-7.367 -7.658 0.215
-8.108 -8.029 -0.159
-7.399 -7.493 -0.103
-8.386 -8.024 -0.434
-7.000 -7.378 0.042
-6.772 -6.785 -0.027
-7.186 -7.268 -0.022
-7.448 -7.599 0.047
-8.386 -8.024 -0.434
-6.857 -7.261 0.289
-6.883 -7.168 0.240
-6.739 -7.095 0.295
-7.205 -6.948 -0.311
-8.385 -8.022 -0.436
-8.386 -8.024 -0.434
-8.386 -8.024 -0.434
-5.829 -7.037 1.170
-6.214 -6.570 0.254
-6.880 -7.168 0.243
-8.317 -7.962 -0.461
-7.410 -7.420 -0.182
-6.970 -7.191 0.176
-7.383 -7.403 -0.175
-6.214 -6.570 0.254
-8.317 -7.970 -0.449
-7.346 -7.759 0.256
-7.385 -7.441 -0.141
-6.766 -6.854 0.042
-6.802 -7.138 0.283
-8.317 -7.962 -0.461
-8.386 -8.024 -0.434
-7.448 -7.599 0.047
-6.680 -7.124 0.392
-6.858 -7.263 0.290
-7.752 -7.651 -0.166
-7.042 -7.333 -0.023
-6.723 -6.791 0.028
-6.735 -7.092 0.294
-6.683 -7.098 0.354
-6.982 -7.192 0.161
-6.639 -6.905 0.218
-6.680 -7.113 0.383
-6.214 -6.570 0.254
-7.571 -7.779 0.138
-6.868 -7.152 0.243
-7.345 -7.350 -0.173
-6.876 -7.168 0.248
-6.880 -7.167 0.243
-7.343 -7.778 0.275
-6.487 -6.273 -0.245
-7.487 -7.598 0.008
-7.409 -7.439 -0.170
-6.680 -7.117 0.387
-8.310 -7.934 -0.493
-6.426 -6.272 -0.186
-8.386 -8.024 -0.434
-7.246 -6.953 -0.342
-7.175 -7.737 0.501
-8.317 -7.961 -0.462
-5.835 -6.828 0.951
-6.639 -6.905 0.218
-8.317 -7.962 -0.461
-8.317 -7.962 -0.461
-7.448 -7.599 0.047
-6.986 -7.758 0.730
-7.186 -7.268 -0.022
-8.996 -8.536 -0.501
-8.386 -8.024 -0.434
-7.147 -7.716 0.508
-7.004 -7.337 0.018
-6.970 -7.191 0.176
-6.885 -7.300 0.206
-6.639 -6.904 0.218
-6.876 -7.168 0.248
-7.246 -6.952 -0.343
-7.000 -7.377 0.056
-8.100 -8.029 -0.151
-8.317 -7.962 -0.461
-8.996 -8.536 -0.501
-7.246 -6.955 -0.340
-8.317 -7.962 -0.460
-7.003 -7.337 0.019
-7.246 -6.956 -0.339
-6.885 -7.192 0.255
-6.999 -7.362 0.051
-6.867 -6.992 0.073
-7.450 -7.556 -0.008
-7.956 -8.318 0.016
-6.683 -7.098 0.353
-6.886 -7.192 0.254
-6.681 -7.116 0.385
-6.993 -7.357 0.038
-7.571 -7.779 0.138
-7.677 -7.597 -0.178
-7.607 -5.875 -1.776
-7.246 -6.953 -0.342
-6.740 -7.092 0.288
-7.246 -6.953 -0.342
-6.918 -7.194 0.220
-6.632 -6.909 0.230
-7.202 -7.089 -0.164
-6.810 -7.073 0.213
-7.039 -7.333 -0.020
-6.678 -7.117 0.390
-6.884 -7.192 0.256
-7.328 -7.796 0.318
-6.918 -7.194 0.220
-7.202 -7.089 -0.164
-11.795 -11.756 -0.068
-7.000 -7.337 0.022
-8.995 -8.536 -0.500
-8.301 -7.958 -0.458
-6.874 -7.169 0.251
-6.843 -7.192 0.296
-6.974 -7.195 0.174
-8.305 -7.968 -0.443
-6.874 -7.169 0.251
-7.381 -7.513 -0.060
-8.305 -7.967 -0.443
-8.305 -7.967 -0.443
-7.001 -7.337 0.021
-7.442 -7.602 0.057
-6.782 -7.153 0.317
-6.883 -7.187 0.254
-7.171 -7.747 0.514
-6.907 -7.170 0.217
-5.813 -6.811 0.953
-8.386 -8.024 -0.435
-8.108 -8.029 -0.158
-6.718 -6.807 0.046
-9.157 -8.720 -0.473
-7.752 -7.651 -0.166
-7.243 -6.955 -0.338
-6.970 -7.192 0.177
-7.487 -7.599 0.009
-7.355 -7.380 -0.199
-6.944 -7.193 0.203
-6.876 -7.169 0.249
-5.835 -6.828 0.951
-7.205 -7.088 -0.168
-8.386 -8.023 -0.435
-9.940 -9.764 -0.271
-7.377 -7.421 -0.145
-7.448 -7.600 0.048
-6.944 -7.193 0.202
-8.634 -8.483 -0.210
-6.788 -7.162 0.320
-6.970 -7.191 0.176
-8.317 -7.961 -0.461
-6.841 -7.202 0.294
-6.788 -7.159 0.317
-6.721 -6.862 0.095
-7.042 -7.333 -0.023
-6.772 -6.786 -0.026
-8.316 -7.962 -0.461
-7.351 -7.656 0.126
-8.104 -8.024 -0.094
-6.886 -7.190 0.253
-7.042 -7.334 -0.022
-6.876 -7.170 0.250
-6.845 -7.190 0.293
-7.132 -7.424 0.201
-9.132 -8.717 -0.452
-6.681 -7.095 0.348
-8.316 -7.962 -0.460
-7.385 -7.635 0.087
-6.909 -7.169 0.215
-7.003 -7.338 0.019
-7.204 -7.088 -0.167
-7.246 -6.956 -0.338
-7.752 -7.651 -0.166
-8.316 -7.962 -0.460
-6.857 -7.262 0.290
-7.351 -7.678 0.151
-6.977 -7.194 0.170
-8.022 -7.967 -0.173
-5.628 -5.879 0.195
-5.835 -6.829 0.951
-8.734 -8.588 -0.189
-5.871 -7.171 1.261
-7.448 -7.600 0.048
-6.977 -7.194 0.170
-7.447 -7.601 0.049
-6.638 -6.905 0.219
-7.465 -7.660 0.119
-6.544 -7.355 0.768
-7.174 -7.739 0.504
-5.835 -6.829 0.951
-7.245 -6.954 -0.340
-7.446 -6.952 -0.543
-7.042 -7.333 -0.023
-12.257 -12.796 0.448
-6.998 -7.385 0.074
-6.684 -7.098 0.352
-8.996 -8.536 -0.501
-6.909 -7.115 0.155
-7.267 -7.446 0.100
-7.205 -7.088 -0.168
-7.206 -6.931 -0.324
-11.837 -12.046 0.197
-6.883 -7.167 0.239
-8.311 -7.926 -0.485
-8.317 -7.962 -0.460
-7.454 -7.334 -0.168
-6.639 -6.904 0.218
-8.996 -8.536 -0.502
-7.246 -6.955 -0.340
-6.977 -7.194 0.170
-7.204 -7.088 -0.168
-6.214 -6.570 0.254
-6.721 -7.094 0.313
-6.919 -7.191 0.215
-8.022 -7.967 -0.173
-8.996 -8.531 -0.505
-7.042 -7.334 -0.022
-6.009 -6.085 0.035
-6.721 -6.862 0.095
-6.715 -7.583 0.822
-7.267 -7.448 0.103
-7.384 -7.424 -0.161
-8.677 -8.573 -0.147
-7.571 -7.779 0.137
-6.954 -7.265 0.199
-6.683 -7.098 0.353
-8.022 -7.967 -0.173
-6.009 -6.085 0.035
-6.639 -6.905 0.218
-8.385 -8.024 -0.435
-8.315 -7.939 -0.490
-6.374 -6.360 -0.077
-6.487 -6.273 -0.245
-6.944 -7.193 0.203
-7.352 -7.734 0.204
-8.316 -7.962 -0.460
-6.836 -7.051 0.173
-8.677 -8.573 -0.147
-7.752 -7.651 -0.166
-7.385 -7.436 -0.142
-6.885 -7.189 0.252
-7.042 -7.334 -0.023
-6.680 -7.124 0.393
-6.944 -7.193 0.203
-6.683 -7.098 0.353
-8.316 -7.968 -0.457
-6.913 -7.013 0.053
-7.204 -7.088 -0.168
-6.845 -7.193 0.296
-6.827 -7.194 0.295
-7.444 -7.498 0.001
-7.752 -7.651 -0.166
-6.009 -6.085 0.035
-6.675 -6.918 0.196
-8.316 -7.962 -0.460
-7.585 -7.465 -0.244
-7.466 -7.660 0.118
-8.317 -7.966 -0.456
-6.913 -7.036 0.074
-8.317 -7.965 -0.458
-6.565 -6.399 -0.198
-7.042 -7.333 -0.023
-6.944 -7.193 0.203
-6.910 -7.169 0.214
-6.721 -6.859 0.093
-6.983 -7.754 0.731
-6.944 -7.193 0.203
-6.977 -7.194 0.170
-6.944 -7.193 0.203
-8.317 -7.962 -0.461
-5.982 -6.020 -0.010
-7.002 -7.340 0.018
-7.477 -7.593 0.021
-6.637 -6.914 0.230
-8.317 -7.963 -0.459
-7.204 -7.088 -0.168
-7.246 -6.954 -0.341
-7.204 -7.458 0.137
-8.317 -7.962 -0.460
-6.944 -7.193 0.203
-6.805 -7.178 0.320
-6.683 -7.097 0.352
-7.204 -7.088 -0.168
-7.246 -6.957 -0.338
-6.910 -7.170 0.215
-6.398 -6.706 0.152
-6.688 -6.809 0.079
-13.022 -13.455 0.417
-8.317 -7.962 -0.461
-6.195 -6.584 0.329
-6.683 -7.098 0.353
-7.003 -7.337 0.019
-8.317 -7.959 -0.464
-5.835 -6.828 0.951
-6.913 -7.038 0.076
-9.066 -10.343 1.062
-7.176 -8.295 0.932
-9.390 -7.918 -1.872
-8.929 -10.489 1.547
-6.509 -7.957 1.398
-9.390 -7.918 -1.872
-6.509 -7.957 1.398
-6.509 -7.957 1.398
-7.176 -8.295 0.932
-13.342 -9.847 -3.462
-6.551 -7.961 1.360
-6.062 -7.285 1.170
-7.107 -8.290 0.969
-7.060 -8.262 1.028
-7.168 -8.296 0.939
-7.271 -8.300 0.903
-6.397 -6.749 0.295
-9.758 -7.621 -2.104
-9.389 -7.919 -1.870
-7.107 -8.290 0.969
-6.506 -7.959 1.403
-7.107 -8.290 0.969
-6.931 -7.474 0.423
-9.389 -7.919 -1.870
-6.931 -7.474 0.422
-9.389 -7.919 -1.870
-6.733 -7.287 0.399
-6.206 -7.790 1.521
-7.170 -8.296 0.937
-9.389 -7.918 -1.870
-7.107 -8.290 0.969
-13.150 -9.838 -3.282
-7.107 -8.290 0.969
-7.168 -8.296 0.939
-7.168 -8.296 0.939
-7.107 -8.290 0.969
-7.270 -8.303 0.908
-7.107 -8.290 0.969
-7.168 -8.296 0.939
-7.168 -8.296 0.939
-6.821 -7.831 0.951
-7.166 -8.296 0.940
-9.389 -7.919 -1.870
-7.107 -8.290 0.969
-7.107 -8.290 0.969
-5.933 -8.138 2.144
-7.107 -8.290 0.969
-5.916 -7.191 1.235
-5.953 -7.774 1.766
-7.107 -8.290 0.969
-7.168 -8.296 0.939
-7.176 -8.295 0.932
-6.304 -7.793 1.421
-7.176 -8.295 0.932
-13.255 -9.847 -3.375
-6.304 -7.795 1.423
-13.193 -9.849 -3.310
-9.275 -7.927 -1.742
-6.562 -7.198 0.487
-6.505 -7.959 1.403
-6.477 -8.253 1.724
-7.165 -8.296 0.941
-5.953 -8.004 1.988
-7.107 -8.290 0.969
-6.401 -6.757 0.301
-7.168 -8.296 0.939
-5.961 -7.253 1.253
-8.705 -10.211 1.489
-6.505 -7.959 1.403
-7.163 -8.277 0.937
-6.505 -7.959 1.403
-7.107 -8.290 0.969
-7.168 -8.296 0.939
-6.401 -6.761 0.306
-7.107 -8.290 0.969
-7.168 -8.296 0.939
-6.505 -7.959 1.403
-6.476 -8.252 1.724
-6.270 -7.367 1.053
-13.303 -9.842 -3.427
-12.837 -9.683 -3.213
-5.896 -6.834 0.891
-9.421 -7.904 -1.915
-13.302 -9.843 -3.426
-6.274 -7.357 1.036
-6.898 -7.456 0.418
-13.150 -9.846 -3.271
-6.560 -7.196 0.486
-7.163 -8.296 0.942
-13.457 -9.846 -3.578
-13.305 -9.843 -3.428
-9.242 -7.941 -1.696
-6.447 -8.254 1.754
-7.107 -8.290 0.969
-9.242 -7.941 -1.696
-6.253 -6.647 0.323
-7.165 -8.296 0.941
-5.997 -7.262 1.206
-6.820 -7.831 0.951
-6.260 -8.042 1.722
-5.998 -7.268 1.213
-8.079 -9.172 1.074
-6.390 -6.707 0.261
-8.702 -10.218 1.500
-4.885 -5.836 0.883
-9.389 -7.919 -1.869
-6.477 -8.253 1.724
-7.107 -8.290 0.969
-13.194 -9.849 -3.312
-13.107 -9.850 -3.224
-6.533 -8.037 1.240
-5.782 -6.459 0.640
-6.040 -7.421 1.350
-6.284 -7.790 1.439
-7.165 -8.296 0.941
-6.314 -7.399 1.031
-5.884 -7.448 1.247
-7.166 -8.296 0.940
-7.107 -8.290 0.969
-8.493 -10.031 1.079
-7.168 -8.296 0.939
-6.358 -6.766 0.348
-6.796 -7.825 0.972
-8.688 -10.221 1.508
-8.702 -10.218 1.500
-7.164 -8.296 0.941
-13.194 -9.849 -3.312
-10.341 -10.813 0.475
-8.702 -10.218 1.500
-6.559 -7.195 0.486
-7.164 -8.296 0.941
-6.505 -7.959 1.404
-6.924 -7.473 0.427
-6.898 -7.454 0.417
-12.769 -9.633 -3.214
-8.102 -9.166 1.045
-9.406 -9.283 -0.322
-6.400 -6.754 0.299
-7.164 -8.296 0.941
-8.702 -10.221 1.501
-7.164 -8.296 0.941
-7.164 -8.296 0.941
-6.505 -7.959 1.404
-7.107 -8.290 0.969
-7.168 -8.296 0.939
-5.816 -6.840 0.982
-13.302 -9.843 -3.426
-6.505 -7.959 1.403
-5.816 -6.840 0.982
-6.400 -6.754 0.300
-13.454 -9.847 -3.574
-7.107 -8.290 0.969
-6.733 -7.284 0.397
-7.259 -8.302 0.917
-13.304 -9.843 -3.427
-6.400 -6.749 0.295
-6.958 -8.284 1.166
-5.917 -6.851 0.891
-6.270 -7.400 1.076
-10.351 -10.810 0.463
-9.389 -7.919 -1.870
-5.915 -6.849 0.890
-13.107 -9.850 -3.224
-6.795 -7.826 0.974
-9.554 -7.932 -2.046
-6.315 -7.405 1.036
-8.518 -10.048 1.123
-7.163 -8.296 0.942
-7.163 -8.296 0.942
-6.547 -7.962 1.365
-10.130 -7.894 -2.871
-9.242 -7.941 -1.696
-7.165 -8.296 0.941
-5.998 -7.268 1.213
-9.555 -7.932 -2.047
-7.165 -8.296 0.941
-7.165 -8.296 0.941
-6.400 -6.753 0.299
-7.262 -8.302 0.914
-7.165 -8.296 0.941
-7.165 -8.296 0.941
-10.352 -10.810 0.462
-6.286 -6.699 0.341
-13.193 -9.849 -3.310
-7.163 -8.296 0.942
-7.163 -8.296 0.942
-9.475 -10.246 0.549
-8.702 -10.218 1.500
-6.269 -7.403 1.082
-6.737 -7.865 1.054
-7.265 -8.302 0.911
-6.329 -8.060 1.661
-13.107 -9.850 -3.224
-6.329 -8.060 1.662
-5.884 -7.448 1.247
-7.166 -8.296 0.940
-8.682 -10.210 1.512
-7.107 -8.290 0.969
-13.099 -9.679 -3.390
-7.160 -8.296 0.943
-8.683 -10.212 1.513
-6.430 -8.066 1.554
-5.807 -7.046 1.200
-7.160 -8.296 0.943
-13.370 -9.846 -3.491
-13.304 -9.843 -3.428
-9.191 -9.248 0.020
-8.683 -10.212 1.513
-6.564 -7.196 0.482
-7.160 -8.296 0.943
-6.375 -6.772 0.344
-8.773 -8.561 -3.356
-7.160 -8.296 0.943
-8.701 -10.220 1.502
-5.958 -7.249 1.252
-7.164 -8.296 0.941
-5.959 -7.250 1.252
-7.263 -8.302 0.913
-6.924 -7.474 0.427
-6.505 -7.959 1.404
-10.352 -10.809 0.462
-6.221 -6.791 0.494
-6.136 -7.352 1.168
-6.738 -7.285 0.392
-5.626 -5.900 0.248
-9.792 -7.555 -2.201
-9.420 -7.905 -1.913
-6.751 -7.870 1.036
-6.899 -7.831 0.862
-9.389 -7.918 -1.870
-6.609 -8.023 1.142
-7.169 -8.296 0.938
-7.169 -8.296 0.938
-6.933 -7.475 0.421
-8.702 -10.218 1.499
-9.389 -7.919 -1.869
-9.242 -7.941 -1.696
-13.191 -9.849 -3.308
-5.958 -7.249 1.252
-7.163 -8.296 0.942
-6.923 -7.474 0.428
-5.941 -8.079 2.073
-5.956 -7.230 1.235
-6.320 -7.371 1.004
-7.107 -8.290 0.969
-8.702 -10.218 1.500
-7.261 -8.302 0.915
-7.164 -8.296 0.941
-9.447 -7.443 -2.038
-7.261 -8.302 0.915
-13.107 -9.850 -3.224
-5.944 -8.053 2.046
-6.176 -6.737 0.510
-7.166 -8.296 0.940
-6.040 -7.422 1.351
-7.122 -8.273 0.968
-7.068 -8.265 1.022
-9.390 -7.920 -1.870
-12.708 -9.769 -3.161
-7.160 -8.296 0.944
-6.668 -8.203 1.485