-5.365 -6.296 0.930
-5.334 -6.296 0.961
-5.334 -6.296 0.961
-5.334 -6.296 0.961
-5.334 -6.296 0.961
-5.500 -6.304 0.803
-5.500 -6.304 0.803
-5.500 -6.304 0.803
-5.500 -6.304 0.803
-5.500 -6.304 0.803
-5.500 -6.304 0.803
-5.500 -6.304 0.803
-5.500 -6.304 0.803
-8.012 -5.397 -2.615
-5.507 -6.303 0.795
-5.507 -6.303 0.795
-5.507 -6.303 0.795
-5.353 -6.294 0.940
-5.507 -6.303 0.795
-6.019 -6.259 0.238
-6.019 -6.259 0.238
-6.019 -6.259 0.238
-6.019 -6.259 0.238
-8.185 -5.416 -2.769
-8.185 -5.416 -2.769
-8.185 -5.416 -2.769
-8.185 -5.416 -2.769
-8.185 -5.416 -2.769
-8.185 -5.416 -2.769
-8.185 -5.416 -2.769
-8.185 -5.416 -2.769
-6.019 -6.259 0.238
-6.019 -6.259 0.238
-6.019 -6.259 0.238
-6.019 -6.259 0.238
-6.019 -6.259 0.238
-8.076 -5.458 -2.617
-8.013 -5.397 -2.615
-8.013 -5.397 -2.615
-8.013 -5.397 -2.615
-8.013 -5.397 -2.615
-8.013 -5.397 -2.615
-8.013 -5.397 -2.615
-5.507 -6.303 0.795
-5.869 -4.935 -0.934
-5.869 -4.935 -0.934
-8.185 -5.416 -2.769
-8.185 -5.416 -2.769
-8.185 -5.416 -2.769
-6.084 -6.265 0.180
-8.185 -5.416 -2.769
-8.185 -5.416 -2.769
-8.185 -5.416 -2.769
-8.185 -5.416 -2.769
-8.185 -5.416 -2.769
-8.013 -5.397 -2.615
-8.013 -5.397 -2.615
-6.084 -6.265 0.180
-6.084 -6.265 0.180
-6.084 -6.265 0.180
-6.017 -4.961 -1.056
-8.076 -5.458 -2.617
-8.013 -5.397 -2.615
-8.013 -5.397 -2.615
-8.076 -5.458 -2.617
-8.076 -5.458 -2.617
-8.076 -5.458 -2.617
-8.076 -5.458 -2.617
-8.076 -5.458 -2.617
-8.076 -5.458 -2.617
-8.076 -5.458 -2.617
-5.292 -6.287 0.992
-4.933 -5.004 0.070
-4.933 -5.004 0.070
-8.076 -5.458 -2.617
-8.076 -5.458 -2.617
-8.076 -5.458 -2.617
-8.076 -5.458 -2.617
-8.076 -5.458 -2.617
-8.076 -5.458 -2.617
-5.507 -6.303 0.795
-5.507 -6.303 0.795
-5.507 -6.303 0.795
-5.507 -6.303 0.795
-5.507 -6.303 0.795
-5.507 -6.303 0.795
-5.507 -6.303 0.795
-5.507 -6.303 0.795
-4.933 -5.004 0.070
-8.185 -5.416 -2.769
-4.933 -5.004 0.070
-8.016 -5.397 -2.618
-8.016 -5.397 -2.618
-8.016 -5.397 -2.618
-8.016 -5.397 -2.618
-8.016 -5.397 -2.618
-8.016 -5.397 -2.618
-8.016 -5.397 -2.618
-5.362 -6.513 1.150
-4.906 -5.000 0.093
-4.906 -5.000 0.093
-4.906 -5.000 0.093
-4.906 -5.000 0.093
-4.906 -5.000 0.093
-4.906 -5.000 0.093
-4.658 -5.240 0.579
-8.023 -5.397 -2.626
-8.023 -5.396 -2.626
-8.023 -5.397 -2.626
-8.187 -5.416 -2.771
-7.503 -4.425 -3.081
-7.698 -4.544 -3.157
-6.085 -6.266 0.179
-6.085 -6.266 0.179
-6.085 -6.266 0.179
-5.931 -5.251 -0.681
-4.216 -5.100 0.880
-4.906 -5.000 0.092
-8.024 -5.396 -2.628
-6.020 -4.961 -1.059
-8.084 -5.457 -2.627
-8.084 -5.457 -2.627
-8.084 -5.457 -2.627
-8.084 -5.457 -2.627
-8.187 -5.415 -2.772
-8.187 -5.415 -2.772
-5.967 -4.966 -1.001
-5.405 -5.120 -0.288
-6.020 -4.961 -1.058
-4.907 -5.000 0.092
-4.191 -5.102 0.907
-4.191 -5.102 0.907
-8.187 -5.415 -2.772
-8.187 -5.415 -2.772
-8.187 -5.415 -2.772
-8.187 -5.415 -2.772
-5.354 -6.294 0.939
-4.190 -5.103 0.909
-8.084 -5.457 -2.627
-8.187 -5.415 -2.772
-8.187 -5.415 -2.772
-8.084 -5.457 -2.627
-8.084 -5.457 -2.627
-8.084 -5.457 -2.627
-8.084 -5.457 -2.627
-8.084 -5.457 -2.627
-8.021 -5.396 -2.625
-8.021 -5.396 -2.625
-8.021 -5.396 -2.625
-8.084 -5.457 -2.627
-8.084 -5.457 -2.627
-8.021 -5.396 -2.625
-8.084 -5.457 -2.627
-8.084 -5.457 -2.627
-8.084 -5.457 -2.627
-5.933 -5.250 -0.685
-5.933 -5.250 -0.685
-5.933 -5.250 -0.684
-4.906 -5.000 0.092
-4.906 -5.000 0.092
-6.020 -4.961 -1.059
-5.967 -4.966 -1.001
-7.704 -4.542 -3.164
-8.022 -5.396 -2.626
-6.020 -4.962 -1.059
-6.020 -4.961 -1.059
-6.020 -4.962 -1.059
-6.020 -4.961 -1.059
-5.405 -5.120 -0.288
-5.405 -5.120 -0.288
-5.405 -5.120 -0.288
-5.405 -5.120 -0.288
-5.405 -5.120 -0.288
-5.405 -5.120 -0.288
-5.405 -5.120 -0.288
-5.405 -5.120 -0.288
-5.405 -5.120 -0.288
-5.879 -4.937 -0.942
-4.191 -5.102 0.907
-4.191 -5.102 0.907
-4.191 -5.102 0.907
-7.704 -4.542 -3.164
-6.024 -6.260 0.234
-6.024 -6.260 0.234
-5.879 -4.937 -0.942
-6.024 -6.260 0.234
-5.362 -6.513 1.149
-5.362 -6.513 1.149
-5.362 -6.513 1.149
-5.879 -4.937 -0.942
-5.879 -4.937 -0.942
-4.907 -5.000 0.092
-4.907 -5.000 0.092
-8.084 -5.457 -2.627
-5.967 -4.966 -1.001
-8.084 -5.457 -2.627
-6.085 -6.266 0.179
-8.084 -5.457 -2.627
-7.738 -4.506 -3.235
-3.672 -4.388 0.716
-4.907 -5.000 0.092
-3.672 -4.388 0.716
-4.907 -5.000 0.092
-4.907 -5.000 0.092
-8.084 -5.457 -2.627
-6.020 -4.961 -1.059
-6.020 -4.962 -1.059
-6.020 -4.961 -1.059
-6.020 -4.962 -1.059
-8.084 -5.457 -2.627
-8.084 -5.457 -2.627
-8.084 -5.457 -2.627
-8.187 -5.415 -2.772
-8.187 -5.415 -2.772
-8.187 -5.415 -2.772
-8.187 -5.415 -2.772
-8.187 -5.415 -2.772
-8.084 -5.457 -2.627
-8.084 -5.457 -2.627
-8.084 -5.457 -2.627
-4.177 -5.097 0.916
-4.177 -5.097 0.916
-5.933 -5.250 -0.685
-5.933 -5.250 -0.684
-5.933 -5.250 -0.685
-8.187 -5.415 -2.772
-8.187 -5.415 -2.772
-8.187 -5.415 -2.772
-8.187 -5.415 -2.772
-8.187 -5.415 -2.772
-7.966 -5.599 -2.366
-7.966 -5.599 -2.366
-7.582 -4.667 -2.916
-5.424 -6.391 0.965
-5.424 -6.391 0.965
-7.966 -5.599 -2.366
-7.966 -5.599 -2.366
-7.695 -4.547 -3.151
-7.500 -4.429 -3.074
-7.500 -4.429 -3.074
-7.500 -4.429 -3.074
-4.886 -5.001 0.113
-4.886 -5.000 0.113
-4.886 -5.000 0.113
-8.007 -5.395 -2.611
-8.007 -5.395 -2.611
-5.345 -6.516 1.169
-5.345 -6.516 1.169
-8.178 -5.414 -2.764
-8.178 -5.414 -2.764
-8.178 -5.414 -2.764
-8.178 -5.414 -2.764
-7.732 -4.510 -3.225
-8.178 -5.414 -2.764
-8.178 -5.414 -2.764
-8.178 -5.414 -2.764
-5.870 -5.199 -0.672
-4.596 -5.565 0.966
-4.596 -5.565 0.966
-4.596 -5.565 0.966
-4.596 -5.565 0.966
-4.596 -5.565 0.966
-5.876 -4.938 -0.939
-5.876 -4.938 -0.939
-5.876 -4.938 -0.939
-5.876 -4.938 -0.939
-5.876 -4.938 -0.939
-7.698 -4.545 -3.156
-4.891 -5.001 0.109
-7.698 -4.545 -3.156
-7.698 -4.545 -3.156
-7.698 -4.545 -3.156
-7.698 -4.545 -3.156
-8.021 -5.395 -2.626
-7.733 -4.509 -3.227
-7.964 -5.597 -2.366
-5.964 -4.967 -0.997
-7.698 -4.545 -3.156
-8.023 -5.396 -2.627
-5.416 -6.390 0.973
-6.017 -4.963 -1.055
-6.017 -4.963 -1.055
-5.402 -5.122 -0.282
-7.733 -4.509 -3.227
-7.733 -4.509 -3.227
-7.733 -4.509 -3.227
-5.359 -6.513 1.152
-8.187 -5.415 -2.771
-4.213 -5.102 0.885
-3.670 -4.387 0.717
-8.084 -5.456 -2.628
-8.084 -5.456 -2.628
-8.084 -5.456 -2.628
-5.878 -4.937 -0.941
-5.964 -4.963 -1.000
-8.084 -5.456 -2.628
-5.932 -5.250 -0.683
-5.932 -5.250 -0.683
-5.932 -5.250 -0.683
-5.932 -5.250 -0.683
-5.932 -5.250 -0.683
-7.739 -4.507 -3.234
-7.739 -4.507 -3.234
-4.597 -5.559 0.959
-7.509 -4.425 -3.087
-7.509 -4.425 -3.087
-8.188 -5.415 -2.773
-8.188 -5.415 -2.773
-8.188 -5.415 -2.773
-8.188 -5.415 -2.773
-8.188 -5.415 -2.773
-6.019 -4.962 -1.058
-8.188 -5.415 -2.773
-8.188 -5.415 -2.773
-8.188 -5.415 -2.773
-8.188 -5.415 -2.773
-7.704 -4.543 -3.164
-7.704 -4.543 -3.164
-7.704 -4.543 -3.164
-7.704 -4.543 -3.164
-8.085 -5.456 -2.629
-7.704 -4.543 -3.164
-4.892 -5.001 0.107
-4.892 -5.001 0.107
-4.892 -5.001 0.107
-4.892 -5.001 0.107
-5.363 -6.512 1.147
-4.668 -5.255 0.583
-6.019 -4.962 -1.058
-8.188 -5.415 -2.773
-4.650 -5.241 0.588
-5.967 -4.966 -1.000
-3.282 -5.261 1.972
-5.968 -4.966 -1.001
-5.405 -5.120 -0.288
-4.153 -5.099 0.941
-7.704 -4.542 -3.164
-7.704 -4.542 -3.164
-4.178 -5.097 0.915
-8.086 -5.458 -2.628
-8.086 -5.458 -2.628
-8.086 -5.458 -2.628
-8.086 -5.458 -2.628
-8.086 -5.458 -2.628
-6.020 -4.962 -1.059
-3.673 -4.387 0.714
-4.215 -5.101 0.882
-5.933 -5.250 -0.684
-3.312 -5.261 1.942
-7.966 -5.599 -2.366
-7.966 -5.599 -2.366
-7.739 -4.506 -3.235
-4.908 -5.000 0.090
-7.704 -4.542 -3.164
-8.086 -5.458 -2.628
-8.086 -5.458 -2.628
-8.086 -5.458 -2.628
-8.086 -5.458 -2.628
-7.704 -4.542 -3.164
-7.509 -4.423 -3.088
-5.967 -4.966 -1.001
-7.966 -5.599 -2.366
-5.303 -6.287 0.982
-4.660 -5.240 0.578
-5.596 -6.550 0.953
-4.908 -5.000 0.091
-7.704 -4.542 -3.164
-7.704 -4.542 -3.164
-4.660 -5.240 0.577
-5.366 -6.512 1.144
-5.366 -6.512 1.144
-5.366 -6.512 1.144
-5.366 -6.512 1.144
-5.366 -6.512 1.144
-5.366 -6.512 1.144
-7.966 -5.599 -2.366
-7.509 -4.423 -3.088
-7.704 -4.542 -3.164
-7.704 -4.542 -3.164
-7.704 -4.542 -3.164
-7.704 -4.542 -3.164
-5.405 -5.120 -0.288
-5.405 -5.120 -0.288
-5.367 -6.512 1.143
-4.154 -5.099 0.941
-7.389 -4.431 -2.961
-7.389 -4.431 -2.961
-7.389 -4.431 -2.961
-4.606 -5.559 0.950
-4.606 -5.559 0.950
-4.606 -5.559 0.950
-4.606 -5.559 0.950
-4.606 -5.559 0.950
-5.594 -6.548 0.953
-4.606 -5.559 0.950
-4.606 -5.559 0.950
-4.606 -5.559 0.950
-4.606 -5.559 0.950
-4.606 -5.559 0.950
-4.606 -5.559 0.950
-4.606 -5.559 0.950
-8.072 -5.555 -2.516
-8.072 -5.555 -2.516
-8.090 -5.456 -2.633
-7.738 -4.508 -3.233
-8.193 -5.414 -2.779
-8.193 -5.414 -2.779
-6.091 -6.265 0.172
-8.193 -5.414 -2.779
-8.193 -5.414 -2.779
-6.022 -4.962 -1.060
-7.703 -4.544 -3.162
-7.703 -4.544 -3.162
-7.703 -4.544 -3.162
-5.365 -6.512 1.145
-7.389 -4.431 -2.962
-7.389 -4.431 -2.961
-7.389 -4.431 -2.961
-7.389 -4.431 -2.962
-7.389 -4.431 -2.961
-5.935 -5.249 -0.686
-5.935 -5.249 -0.686
-5.935 -5.249 -0.686
-5.935 -5.249 -0.686
-7.508 -4.425 -3.086
-4.190 -5.103 0.909
-8.090 -5.456 -2.633
-8.090 -5.456 -2.633
-8.090 -5.456 -2.633
-7.738 -4.508 -3.233
-4.607 -5.559 0.949
-4.660 -5.240 0.577
-5.880 -4.937 -0.943
-5.880 -4.937 -0.944
-5.880 -4.937 -0.943
-7.969 -5.597 -2.371
-6.179 -6.283 0.103
-5.405 -5.121 -0.286
-4.678 -5.255 0.573
-8.193 -5.414 -2.779
-3.312 -5.260 1.942
-3.312 -5.260 1.942
-7.703 -4.544 -3.162
-7.703 -4.544 -3.162
-6.022 -4.961 -1.060
-3.312 -5.260 1.942
-4.677 -5.253 0.573
-7.703 -4.544 -3.162
-7.096 -4.773 -2.325
-7.096 -4.773 -2.325
-7.096 -4.773 -2.325
-5.968 -4.966 -1.002
-7.508 -4.425 -3.086
-7.508 -4.425 -3.086
-4.660 -5.240 0.577
-4.660 -5.240 0.577
-7.738 -4.508 -3.233
-7.738 -4.508 -3.233
-7.738 -4.508 -3.233
-7.738 -4.508 -3.233
-7.738 -4.508 -3.233
-7.738 -4.508 -3.233
-5.365 -6.512 1.145
-4.190 -5.103 0.909
-4.607 -5.559 0.949
-8.090 -5.456 -2.633
-3.669 -4.388 0.718
-3.669 -4.388 0.719
-4.212 -5.101 0.885
-3.669 -4.388 0.719
-3.669 -4.388 0.718
-3.669 -4.388 0.719
-3.669 -4.388 0.719
-4.659 -5.240 0.578
-4.635 -5.232 0.594
-4.155 -5.099 0.939
-4.219 -5.100 0.877
-6.065 -6.267 0.200
-7.272 -4.778 -2.495
-4.937 -5.016 0.077
-7.374 -4.429 -2.948
-4.234 -5.098 0.860
-3.317 -5.256 1.933
-3.346 -5.256 1.902
-4.696 -5.249 0.550
-8.073 -5.455 -2.618
-8.009 -5.393 -2.615
-7.508 -4.427 -3.085
-5.348 -6.514 1.165
-5.348 -6.514 1.165
-8.017 -5.392 -2.624
-8.017 -5.392 -2.624
-5.882 -4.936 -0.946
-5.882 -4.936 -0.946
-4.969 -4.997 0.026
-4.210 -5.099 0.885
-8.184 -5.412 -2.772
-8.184 -5.412 -2.772
-3.917 -5.487 1.569
-5.421 -5.120 -0.302
-4.208 -5.099 0.887
-4.208 -5.099 0.887
-4.208 -5.099 0.887
-4.208 -5.099 0.887
-4.208 -5.099 0.887
-4.969 -4.997 0.026
-8.020 -5.393 -2.627
-8.020 -5.393 -2.627
-8.020 -5.393 -2.627
-4.942 -4.993 0.049
-4.942 -4.993 0.049
-4.942 -4.993 0.049
-4.696 -5.250 0.551
-3.423 -5.118 1.691
-4.679 -5.236 0.554
-5.876 -5.196 -0.681
-5.347 -6.513 1.165
-5.354 -6.515 1.159
-5.354 -6.515 1.159
-5.354 -6.515 1.159
-4.234 -5.469 1.233
-8.184 -5.412 -2.772
-7.743 -4.509 -3.237
-4.209 -5.099 0.886
-4.680 -5.237 0.554
-8.081 -5.454 -2.627
-3.311 -5.255 1.938
-3.311 -5.255 1.938
-5.357 -6.517 1.158
-3.196 -5.076 1.875
-3.196 -5.076 1.875
-3.196 -5.076 1.875
-4.673 -5.236 0.560
-4.673 -5.236 0.560
-4.673 -5.236 0.560
-4.673 -5.236 0.560
-4.673 -5.236 0.560
-4.195 -5.094 0.894
-4.195 -5.094 0.894
-7.282 -4.775 -2.508
-7.282 -4.775 -2.508
-8.184 -5.412 -2.772
-7.282 -4.775 -2.508
-8.184 -5.412 -2.772
-2.795 -3.840 1.046
-3.917 -5.487 1.569
-4.172 -5.095 0.919
-4.696 -5.250 0.551
-8.019 -5.393 -2.626
-8.019 -5.393 -2.626
-8.019 -5.393 -2.626
-8.019 -5.393 -2.626
-8.019 -5.393 -2.626
-8.019 -5.393 -2.626
-7.094 -4.773 -2.322
-5.882 -4.936 -0.946
-7.094 -4.773 -2.322
-4.224 -5.468 1.242
-4.231 -5.471 1.238
-4.231 -5.471 1.238
-4.231 -5.471 1.238
-5.481 -6.520 1.038
-5.481 -6.520 1.038
-8.184 -5.412 -2.772
-3.347 -5.255 1.902
-5.349 -6.294 0.943
-4.968 -4.997 0.027
-5.349 -6.294 0.943
-4.968 -4.997 0.026
-4.968 -4.997 0.026
-4.968 -4.997 0.026
-5.349 -6.294 0.943
-8.081 -5.454 -2.627
-8.081 -5.454 -2.627
-8.017 -5.392 -2.624
-8.017 -5.392 -2.624
-4.172 -5.095 0.919
-5.353 -6.517 1.162
-7.094 -4.773 -2.322
-7.094 -4.773 -2.322
-8.017 -5.392 -2.624
-7.510 -4.425 -3.088
-8.017 -5.392 -2.624
-8.017 -5.392 -2.624
-8.184 -5.412 -2.772
-4.942 -4.993 0.049
-4.942 -4.993 0.049
-4.942 -4.993 0.049
-3.423 -5.118 1.691
-4.968 -4.997 0.027
-8.081 -5.454 -2.627
-4.180 -5.387 1.208
-8.017 -5.393 -2.624
-4.208 -5.099 0.887
-4.208 -5.099 0.887
-2.795 -3.840 1.046
-3.423 -5.118 1.691
-3.423 -5.118 1.691
-3.423 -5.118 1.691
-3.423 -5.118 1.691
-7.510 -4.425 -3.088
-7.510 -4.425 -3.087
-8.018 -5.393 -2.625
-5.354 -6.517 1.161
-2.774 -3.859 1.086
-5.480 -6.522 1.040
-4.164 -5.095 0.926
-4.968 -4.997 0.027
-5.356 -6.517 1.158
-4.968 -4.997 0.027
-4.968 -4.997 0.027
-4.968 -4.997 0.027
-4.968 -4.997 0.027
-4.968 -4.997 0.027
-8.081 -5.454 -2.627
-8.081 -5.454 -2.627
-8.081 -5.454 -2.627
-8.081 -5.454 -2.627
-8.081 -5.454 -2.627
-3.942 -5.485 1.542
-4.195 -5.094 0.894
-4.195 -5.094 0.894
-5.349 -6.294 0.943
-5.353 -6.517 1.162
-3.347 -5.255 1.901
-8.020 -5.393 -2.627
-3.918 -5.487 1.568
-3.918 -5.487 1.568
-3.918 -5.487 1.568
-7.499 -4.431 -3.071
-4.223 -5.469 1.244
-8.081 -5.454 -2.627
-8.081 -5.454 -2.627
-3.196 -5.076 1.875
-4.696 -5.250 0.551
-4.696 -5.250 0.551
-4.968 -4.997 0.026
-3.347 -5.255 1.902
-4.673 -5.236 0.560
-4.172 -5.095 0.919
-8.017 -5.392 -2.624
-8.081 -5.454 -2.627
-7.997 -5.397 -2.599
-7.997 -5.397 -2.599
-7.997 -5.397 -2.599
-3.347 -5.255 1.901
-4.208 -5.099 0.886
-5.353 -6.517 1.162
-5.353 -6.517 1.162
-5.353 -6.517 1.162
-5.353 -6.517 1.162
-5.353 -6.517 1.162
-7.708 -4.544 -3.167
-4.172 -5.095 0.918
-4.964 -5.005 0.039
-3.197 -5.076 1.875
-3.197 -5.076 1.875
-3.197 -5.076 1.875
-3.197 -5.076 1.875
-3.197 -5.076 1.875
-7.708 -4.544 -3.167
-3.918 -5.487 1.568
-3.918 -5.487 1.568
-5.470 -6.519 1.046
-5.470 -6.519 1.046
-8.017 -5.392 -2.624
-8.017 -5.393 -2.624
-7.510 -4.425 -3.088
-7.510 -4.425 -3.088
-7.510 -4.425 -3.088
-7.510 -4.425 -3.088
-8.017 -5.392 -2.624
-5.346 -6.516 1.168
-5.346 -6.516 1.168
-5.346 -6.516 1.168
-4.257 -5.468 1.210
-4.257 -5.468 1.210
-4.257 -5.468 1.210
-4.195 -5.094 0.894
-4.696 -5.250 0.551
-3.943 -5.485 1.541
-3.918 -5.487 1.568
-7.999 -5.397 -2.601
-7.999 -5.397 -2.601
-3.423 -5.118 1.691
-4.257 -5.468 1.210
-3.423 -5.118 1.691
-3.423 -5.118 1.691
-4.257 -5.468 1.210
-3.197 -5.076 1.875
-5.354 -6.517 1.161
-4.257 -5.468 1.210
-5.346 -6.516 1.167
-3.917 -5.487 1.569
-5.346 -6.516 1.167
-4.257 -5.468 1.210
-4.257 -5.468 1.210
-4.257 -5.468 1.210
-4.968 -4.997 0.027
-3.419 -5.122 1.699
-4.679 -5.237 0.555
-5.480 -6.522 1.040
-5.346 -6.516 1.168
-3.346 -5.255 1.902
-3.346 -5.255 1.902
-5.349 -6.515 1.164
-4.696 -5.250 0.551
-4.696 -5.250 0.551
-8.081 -5.454 -2.627
-8.081 -5.454 -2.627
-8.067 -5.456 -2.610
-7.695 -4.547 -3.151
-8.067 -5.456 -2.610
-4.645 -5.242 0.594
-4.645 -5.242 0.594
-4.645 -5.242 0.594
-4.645 -5.242 0.594
-4.645 -5.242 0.594
-4.645 -5.242 0.594
-4.645 -5.242 0.594
-2.806 -4.700 1.895
-4.713 -5.270 0.554
-3.281 -5.260 1.973
-5.349 -6.516 1.164
-5.349 -6.516 1.164
-3.173 -5.082 1.905
-3.173 -5.082 1.905
-5.486 -6.523 1.035
-4.176 -5.098 0.917
-5.346 -6.516 1.167
-3.942 -5.486 1.543
-3.942 -5.486 1.543
-5.467 -6.520 1.051
-4.903 -5.000 0.095
-4.903 -5.000 0.095
-4.956 -5.014 0.055
-3.347 -5.255 1.901
-3.347 -5.255 1.901
-4.679 -5.236 0.554
-8.015 -5.395 -2.620
-8.015 -5.394 -2.620
-4.834 -5.055 0.220
-4.834 -5.056 0.220
-4.834 -5.054 0.219
-5.443 -6.299 0.855
-2.576 -3.683 1.106
-2.576 -3.683 1.106
-2.576 -3.683 1.106
-2.576 -3.683 1.106
-4.912 -5.025 0.111
-2.576 -3.683 1.106
-2.576 -3.683 1.106
-4.865 -5.040 0.173
-4.865 -5.040 0.173
-4.912 -5.025 0.111
-4.912 -5.025 0.111
-4.836 -5.054 0.217
-2.576 -3.683 1.106
-2.576 -3.683 1.106
-2.576 -3.683 1.106
-2.576 -3.683 1.106
-2.576 -3.683 1.106
-2.576 -3.683 1.106
-2.576 -3.683 1.106
-4.966 -5.011 0.043
-4.853 -5.036 0.180
-2.643 -3.687 1.043
-2.643 -3.687 1.043
-2.577 -3.683 1.104
-2.577 -3.683 1.104
-4.963 -5.019 0.054
-4.811 -5.054 0.241
-4.973 -4.996 0.021
-4.951 -5.027 0.074
-4.951 -5.027 0.074
-4.951 -5.027 0.074
-5.406 -6.292 0.885
-4.962 -5.019 0.055
-4.835 -5.055 0.219
-4.853 -5.036 0.180
-4.853 -5.036 0.180
-4.211 -5.098 0.883
-4.945 -4.992 0.045
-4.963 -5.019 0.054
-4.963 -5.019 0.054
-4.963 -5.019 0.054
-4.963 -5.019 0.054
-4.963 -5.019 0.054
-4.963 -5.019 0.054
-4.971 -5.029 0.056
-4.892 -5.042 0.148
-4.892 -5.040 0.147
-4.893 -5.040 0.145
-4.893 -5.042 0.147
-4.957 -5.014 0.055
-4.957 -5.014 0.055
-4.957 -5.014 0.055
-4.962 -5.019 0.055
-4.962 -5.019 0.055
-4.968 -5.004 0.035
-4.968 -5.004 0.035
-4.951 -5.027 0.074
-4.971 -5.029 0.056
-5.445 -6.301 0.856
-4.835 -5.056 0.219
-5.445 -6.302 0.856
-4.835 -5.055 0.218
-4.835 -5.055 0.218
-4.835 -5.055 0.219
-4.835 -5.055 0.219
-4.951 -5.027 0.074
-4.935 -5.033 0.095
-4.935 -5.033 0.095
-4.835 -5.055 0.218
-4.966 -5.011 0.043
-4.966 -5.011 0.043
-4.456 -4.793 0.338
-4.853 -5.036 0.180
-4.853 -5.036 0.181
-4.835 -5.055 0.219
-4.648 -5.276 0.625
-4.648 -5.276 0.625
-2.459 -3.712 1.252
-2.459 -3.712 1.252
-4.971 -5.029 0.056
-4.835 -5.055 0.219
-5.445 -6.302 0.856
-4.972 -4.996 0.023
-4.210 -5.098 0.883
-4.834 -5.108 0.269
-4.893 -5.044 0.149
-4.776 -5.104 0.328
-4.834 -5.055 0.220
-2.671 -4.232 1.562
-4.966 -5.004 0.036
-4.966 -5.004 0.036
-4.966 -5.004 0.036
-4.966 -5.004 0.036
-4.912 -5.025 0.111
-4.628 -5.277 0.646
-4.968 -5.004 0.034
-4.946 -5.037 0.090
-4.946 -5.037 0.090
-4.946 -5.037 0.090
-4.811 -5.054 0.242
-4.892 -5.044 0.150
-4.211 -5.098 0.883
-2.867 -4.243 1.370
-2.131 -3.595 1.454
-4.967 -5.004 0.036
-4.967 -5.004 0.036
-4.967 -5.004 0.036
-4.967 -5.004 0.036
-4.967 -5.004 0.036
-4.835 -5.055 0.218
-4.836 -5.055 0.218
-4.621 -5.278 0.654
-4.621 -5.278 0.654
-5.444 -6.293 0.848
-2.503 -3.642 1.137
-4.951 -5.027 0.074
-4.951 -5.027 0.075
-4.951 -5.027 0.075
-2.581 -4.160 1.580
-4.893 -5.039 0.143
-4.811 -5.054 0.241
-4.835 -5.056 0.219
-4.835 -5.055 0.219
-4.892 -5.042 0.147
-4.210 -5.098 0.883
-4.174 -5.094 0.915
-4.648 -5.275 0.625
-4.796 -5.068 0.270
-5.542 -6.301 0.758
-4.796 -5.068 0.270
-5.542 -6.301 0.758
-4.794 -5.067 0.270
-4.796 -5.068 0.270
-4.971 -5.029 0.056
-4.971 -5.029 0.056
-4.968 -5.004 0.034
-4.615 -5.286 0.668
-4.892 -5.039 0.145
-4.836 -5.055 0.218
-4.836 -5.055 0.218
-4.836 -5.055 0.218
-4.837 -5.065 0.226
-4.836 -5.055 0.218
-4.972 -4.996 0.022
-4.893 -5.042 0.148
-4.893 -5.044 0.149
-3.166 -4.474 1.310
-4.210 -5.098 0.883
-4.210 -5.098 0.883
-4.210 -5.098 0.883
-4.210 -5.098 0.883
-2.575 -3.683 1.107
-2.575 -3.683 1.107
-4.892 -5.042 0.148
-4.971 -5.029 0.056
-4.971 -5.029 0.056
-4.968 -5.004 0.035
-4.971 -5.029 0.056
-4.940 -4.991 0.050
-4.819 -5.059 0.239
-2.409 -3.653 1.243
-4.819 -5.059 0.239
-5.377 -6.545 1.167
-1.938 -4.148 2.210
-4.963 -5.019 0.054
-4.971 -5.029 0.056
-4.971 -5.029 0.056
-4.819 -5.059 0.238
-4.819 -5.059 0.238
-4.210 -5.098 0.883
-4.210 -5.098 0.883
-4.210 -5.098 0.883
-4.939 -5.007 0.067
-4.939 -5.007 0.067
-5.444 -6.302 0.857
-4.819 -5.061 0.240
-4.819 -5.059 0.238
-4.819 -5.059 0.238
-4.940 -4.991 0.050
-4.906 -5.038 0.130
-4.892 -5.042 0.147
-4.892 -5.042 0.147
-5.506 -6.293 0.786
-2.503 -3.642 1.137
-4.796 -5.068 0.270
-2.503 -3.642 1.137
-4.174 -5.094 0.916
-4.906 -5.038 0.130
-4.963 -5.019 0.054
-5.500 -6.302 0.800
-4.174 -5.094 0.915
-4.941 -5.000 0.058
-3.682 -5.255 1.571
-4.962 -5.019 0.055
-4.962 -5.019 0.055
-4.962 -5.019 0.055
-4.962 -5.019 0.055
-4.892 -5.042 0.148
-2.505 -4.206 1.699
-2.505 -4.206 1.699
-2.503 -3.642 1.137
-4.935 -5.035 0.099
-4.931 -5.011 0.078
-4.931 -5.011 0.078
-4.931 -5.011 0.078
-4.751 -5.060 0.308
-2.457 -3.712 1.254
-5.498 -6.294 0.795
-4.889 -5.042 0.151
-4.816 -5.059 0.242
-4.850 -5.036 0.184
-4.850 -5.036 0.184
-4.850 -5.036 0.184
-4.850 -5.036 0.184
-4.832 -5.055 0.221
-2.575 -3.684 1.107
-2.575 -3.683 1.107
-4.891 -5.026 0.132
-4.889 -5.044 0.153
-4.968 -5.029 0.059
-3.101 -5.231 2.123
-2.505 -4.206 1.699
-2.575 -3.684 1.108
-2.575 -3.684 1.108
-2.575 -3.684 1.108
-2.575 -3.684 1.108
-2.575 -3.684 1.108
-2.575 -3.684 1.108
-4.947 -5.028 0.079
-4.889 -5.043 0.152
-3.347 -5.258 1.904
-5.399 -6.293 0.893
-4.889 -5.043 0.152
-4.889 -5.037 0.146
-4.889 -5.045 0.154
-3.280 -5.266 1.980
-3.280 -5.266 1.980
-3.280 -5.266 1.980
-4.959 -5.019 0.059
-4.964 -5.004 0.038
-5.498 -6.294 0.794
-4.889 -5.043 0.151
-2.627 -4.254 1.626
-4.952 -5.015 0.060
-4.952 -5.015 0.060
-4.952 -5.015 0.060
-4.952 -5.015 0.060
-4.664 -5.224 0.557
-2.505 -4.206 1.699
-4.816 -5.059 0.242
-4.936 -5.008 0.070
-4.816 -5.059 0.242
-5.438 -6.301 0.862
-4.890 -5.041 0.149
-4.887 -5.045 0.156
-4.887 -5.047 0.158
-4.834 -4.985 0.139
-4.892 -5.035 0.142
-4.887 -5.062 0.172
-3.313 -5.257 1.938
-2.626 -4.254 1.626
-4.903 -5.039 0.133
-4.903 -5.039 0.133
-4.903 -5.039 0.133
-4.903 -5.039 0.133
-4.903 -5.039 0.133
-2.503 -3.642 1.137
-2.503 -3.642 1.137
-2.503 -3.642 1.137
-4.943 -5.038 0.093
-5.359 -6.540 1.180
-1.940 -4.148 2.208
-2.626 -4.254 1.626
-4.936 -4.992 0.054
-2.599 -4.240 1.640
-2.505 -4.206 1.699
-2.505 -4.206 1.699
-3.285 -5.264 1.973
-4.905 -6.237 1.331
-5.438 -6.303 0.864
-4.816 -5.059 0.241
-4.816 -5.059 0.241
-4.816 -5.059 0.241
-4.816 -5.059 0.242
-5.438 -6.305 0.867
-4.816 -5.059 0.242
-3.285 -5.264 1.973
-3.285 -5.264 1.973
-3.285 -5.264 1.973
-3.285 -5.264 1.973
-4.904 -5.039 0.133
-2.505 -4.206 1.699
-2.505 -4.206 1.699
-4.749 -5.059 0.308
-4.748 -5.066 0.317
-4.748 -5.065 0.316
-4.747 -5.067 0.318
-4.747 -5.071 0.322
-4.748 -5.057 0.308
-4.944 -5.038 0.092
-4.966 -5.004 0.037
-4.966 -5.004 0.037
-2.505 -4.206 1.699
-5.494 -6.303 0.807
-4.816 -5.059 0.241
-4.833 -5.056 0.221
-4.833 -5.057 0.222
-4.816 -5.059 0.241
-5.438 -6.304 0.865
-4.817 -5.059 0.241
-4.935 -5.028 0.091
-4.932 -5.033 0.099
-4.665 -5.224 0.556
-2.576 -3.683 1.105
-4.948 -5.028 0.077
-3.285 -5.264 1.973
-3.285 -5.264 1.973
-3.285 -5.264 1.973
-4.960 -5.019 0.058
-3.282 -5.265 1.977
-3.282 -5.265 1.977
-3.282 -5.265 1.977
-4.965 -5.005 0.037
-4.965 -5.005 0.037
-4.816 -5.059 0.241
-2.598 -4.240 1.640
-2.918 -4.318 1.400
-2.899 -4.323 1.424
-4.664 -5.225 0.557
-2.576 -3.683 1.106
-2.505 -4.206 1.700
-2.505 -4.206 1.700
-2.505 -4.206 1.700
-3.281 -5.266 1.978
-5.438 -6.303 0.864
-1.990 -4.174 2.184
-4.938 -4.992 0.052
-3.251 -5.261 2.002
-3.251 -5.261 2.002
-2.505 -4.206 1.699
-2.505 -4.206 1.699
-2.505 -4.206 1.699
-2.505 -4.206 1.699
-2.505 -4.206 1.699
-2.004 -4.169 2.166
-2.626 -4.254 1.626
-2.626 -4.254 1.626
-4.665 -5.229 0.561
-2.626 -4.254 1.626
-4.664 -5.225 0.557
-4.676 -5.245 0.566
-4.936 -4.992 0.054
-4.936 -4.992 0.054
-4.934 -5.028 0.093
-4.816 -5.059 0.242
-4.943 -5.038 0.093
-2.004 -4.170 2.166
-2.004 -4.170 2.166
-2.004 -4.170 2.166
-2.004 -4.170 2.166
-2.004 -4.170 2.166
-2.004 -4.170 2.166
-3.285 -5.264 1.973
-3.285 -5.264 1.973
-4.671 -5.248 0.574
-3.317 -5.258 1.934
-3.317 -5.258 1.934
-4.890 -5.042 0.150
-4.890 -5.042 0.150
-3.285 -5.264 1.973
-4.817 -5.060 0.242
-4.892 -5.064 0.168
-2.409 -3.654 1.244
-2.409 -3.654 1.244
-5.400 -6.293 0.892
-4.960 -5.019 0.058
-4.816 -5.060 0.242
-5.438 -6.303 0.864
-4.818 -5.086 0.267
-2.505 -4.206 1.699
-2.505 -4.206 1.699
-4.748 -5.065 0.315
-1.997 -4.172 2.175
-4.672 -5.248 0.573
-4.672 -5.248 0.573
-4.944 -5.038 0.093
-4.677 -5.245 0.565
-4.677 -5.245 0.565
-3.313 -5.265 1.945
-3.282 -5.265 1.977
-3.282 -5.265 1.977
-2.598 -4.240 1.640
-3.275 -5.265 1.984
-3.275 -5.265 1.984
-3.275 -5.266 1.984
-5.400 -6.294 0.891
-3.281 -5.266 1.978
-2.191 -4.201 2.011
-4.671 -5.248 0.574
-2.410 -3.653 1.243
-5.438 -6.303 0.864
-4.960 -5.019 0.057
-4.960 -5.019 0.057
-3.285 -5.264 1.973
-3.285 -5.264 1.973
-5.278 -6.286 1.007
-4.938 -4.991 0.052
-4.938 -4.992 0.052
-4.938 -4.992 0.052
-5.400 -6.295 0.893
-4.960 -5.019 0.057
-4.944 -5.038 0.092
-2.496 -3.700 1.203
-2.496 -3.700 1.203
-2.496 -3.700 1.203
-4.890 -5.043 0.151
-4.890 -5.042 0.150
-2.840 -4.166 1.323
-3.656 -5.043 1.382
-3.276 -4.890 1.608
-3.656 -5.043 1.382
-3.316 -5.049 1.728
-3.316 -5.049 1.728
-3.656 -5.043 1.382
-3.360 -4.824 1.458
-3.565 -5.101 1.531
-3.565 -5.101 1.531
-3.565 -5.101 1.531
-3.565 -5.101 1.531
-3.565 -5.101 1.531
-3.565 -5.101 1.531
-3.565 -5.101 1.531
-3.565 -5.101 1.531
-3.565 -5.101 1.531
-3.657 -5.043 1.381
-3.565 -5.101 1.531
-3.657 -5.043 1.381
-3.460 -5.031 1.567
-3.460 -5.031 1.567
-3.460 -5.032 1.567
-3.460 -5.031 1.567
-3.460 -5.031 1.567
-3.460 -5.032 1.567
-3.460 -5.031 1.567
-3.460 -5.032 1.567
-3.460 -5.031 1.567
-3.460 -5.031 1.567
-3.460 -5.031 1.567
-3.460 -5.031 1.567
-3.460 -5.031 1.567
-3.653 -5.043 1.385
-3.653 -5.043 1.385
-3.653 -5.043 1.385
-3.653 -5.043 1.385
-3.337 -5.423 2.085
-3.218 -5.388 2.167
-3.562 -5.102 1.535
-3.656 -5.044 1.382
-3.656 -5.043 1.382
-3.318 -5.048 1.725
-3.656 -5.044 1.382
-3.235 -4.901 1.659
-3.359 -4.825 1.461
-3.359 -4.825 1.461
-3.359 -4.825 1.461
-3.563 -5.102 1.534
-3.404 -4.947 1.537
-3.359 -4.825 1.461
-3.359 -4.825 1.461
-3.359 -4.825 1.461
-3.359 -4.825 1.461
-3.277 -4.891 1.608
-3.277 -4.891 1.608
-3.277 -4.891 1.608
-3.318 -5.048 1.725
-3.318 -5.048 1.725
-3.318 -5.099 1.777
-3.656 -5.044 1.382
-3.656 -5.043 1.382
-3.656 -5.043 1.382
-3.656 -5.044 1.382
-3.656 -5.044 1.382
-3.656 -5.043 1.382
-3.563 -5.102 1.534
-3.695 -4.381 0.686
-3.318 -5.048 1.725
-3.656 -5.043 1.382
-3.656 -5.043 1.382
-3.656 -5.043 1.382
-3.025 -4.597 1.568
-3.310 -4.621 1.307
-3.492 -5.450 1.957
-3.492 -5.450 1.957
-3.492 -5.450 1.957
-3.562 -5.102 1.536
-3.562 -5.102 1.536
-3.025 -4.597 1.568
-3.025 -4.597 1.568
-3.025 -4.597 1.568
-3.359 -4.825 1.461
-3.359 -4.825 1.461
-3.359 -4.825 1.461
-3.359 -4.825 1.461
-3.359 -4.825 1.461
-3.318 -5.099 1.778
-3.656 -5.043 1.382
-5.325 -6.510 1.183
-5.325 -6.510 1.183
-5.325 -6.510 1.183
-3.217 -5.388 2.167
-3.338 -5.423 2.084
-3.338 -5.423 2.084
-3.338 -5.423 2.084
-3.318 -5.099 1.777
-3.318 -5.099 1.777
-3.318 -5.099 1.777
-3.318 -5.099 1.777
-3.318 -5.099 1.777
-3.318 -5.099 1.777
-3.318 -5.099 1.777
-3.318 -5.099 1.777
-3.318 -5.099 1.777
-3.318 -5.099 1.777
-3.657 -5.044 1.382
-3.657 -5.044 1.382
-3.657 -5.044 1.382
-3.657 -5.044 1.382
-3.657 -5.044 1.382
-3.338 -5.423 2.084
-3.338 -5.423 2.084
-3.358 -4.824 1.461
-3.358 -4.824 1.461
-3.421 -5.123 1.699
-3.657 -5.044 1.382
-3.160 -4.487 1.323
-3.160 -4.487 1.323
-3.563 -5.102 1.533
-3.405 -4.947 1.537
-3.405 -4.947 1.537
-3.405 -4.947 1.537
-3.216 -5.388 2.168
-3.237 -5.291 2.050
-3.237 -5.291 2.050
-3.237 -5.291 2.050
-3.237 -5.291 2.050
-3.172 -5.043 1.868
-3.172 -5.043 1.868
-3.172 -5.043 1.868
-3.237 -5.291 2.050
-3.172 -5.043 1.868
-3.172 -5.043 1.868
-3.338 -5.424 2.084
-3.338 -5.424 2.084
-3.319 -5.048 1.724
-3.319 -5.049 1.725
-3.319 -5.048 1.725
-3.318 -5.099 1.777
-5.327 -6.510 1.181
-5.327 -6.510 1.181
-5.327 -6.510 1.181
-5.327 -6.510 1.181
-5.327 -6.510 1.181
-5.327 -6.510 1.181
-3.056 -4.786 1.727
-3.405 -4.947 1.536
-3.563 -5.102 1.534
-3.563 -5.102 1.533
-3.483 -5.344 1.858
-3.657 -5.044 1.382
-3.319 -5.049 1.725
-3.319 -5.049 1.725
-3.657 -5.044 1.382
-3.657 -5.044 1.382
-5.332 -6.511 1.177
-3.160 -4.487 1.323
-2.961 -4.717 1.756
-3.212 -5.388 2.172
-3.650 -4.962 1.308
-3.319 -5.049 1.725
-3.319 -5.048 1.725
-3.319 -5.049 1.725
-3.657 -5.044 1.382
-3.217 -5.388 2.167
-3.405 -4.947 1.537
-5.327 -6.510 1.181
-3.337 -5.424 2.085
-3.235 -4.900 1.658
-3.160 -4.486 1.322
-3.319 -5.048 1.725
-3.319 -5.048 1.725
-3.202 -4.643 1.437
-3.202 -4.643 1.437
-3.202 -4.643 1.437
-3.202 -4.643 1.437
-3.483 -5.345 1.858
-3.483 -5.344 1.858
-3.483 -5.344 1.858
-3.483 -5.344 1.858
-2.961 -4.717 1.756
-3.360 -4.825 1.460
-3.491 -5.450 1.958
-3.318 -5.099 1.777
-3.491 -5.450 1.958
-3.657 -5.044 1.382
-3.657 -5.044 1.382
-3.359 -4.825 1.460
-3.202 -4.643 1.438
-2.962 -4.717 1.756
-3.564 -5.102 1.533
-3.388 -5.335 1.943
-3.388 -5.335 1.943
-3.491 -5.450 1.958
-3.491 -5.450 1.958
-3.562 -5.102 1.535
-3.026 -4.597 1.567
-3.026 -4.597 1.567
-3.236 -4.900 1.658
-3.236 -4.900 1.658
-3.392 -5.028 1.633
-3.236 -4.900 1.658
-3.160 -4.488 1.324
-3.657 -5.044 1.382
-3.657 -5.044 1.382
-3.338 -5.423 2.084
-3.338 -5.423 2.084
-2.962 -4.717 1.756
-2.988 -5.000 2.009
-3.038 -5.348 2.306
-2.988 -5.000 2.009
-3.319 -5.099 1.776
-2.962 -4.717 1.756
-3.319 -5.048 1.725
-3.262 -5.388 2.123
-3.262 -5.388 2.123
-3.262 -5.388 2.123
-3.262 -5.388 2.123
-3.088 -4.587 1.494
-3.237 -5.291 2.050
-3.492 -5.450 1.957
-3.202 -4.643 1.437
-3.563 -5.102 1.534
-3.359 -4.825 1.460
-3.359 -4.825 1.460
-3.359 -4.825 1.460
-2.962 -4.717 1.756
-2.962 -4.717 1.756
-3.405 -4.947 1.536
-3.405 -4.947 1.536
-3.405 -4.947 1.536
-3.320 -5.048 1.724
-3.320 -5.049 1.724
-3.320 -5.049 1.724
-3.320 -5.048 1.724
-3.318 -5.099 1.777
-5.327 -6.510 1.181
-3.262 -5.389 2.123
-3.262 -5.389 2.123
-3.262 -5.389 2.123
-3.262 -5.389 2.123
-3.262 -5.389 2.123
-3.088 -4.587 1.495
-2.814 -4.695 1.881
-5.327 -6.510 1.181
-2.962 -4.717 1.756
-3.318 -5.099 1.777
-3.318 -5.099 1.777
-2.938 -4.137 1.199
-2.938 -4.137 1.199
-3.320 -5.049 1.724
-3.320 -5.049 1.724
-4.905 -5.022 0.114
-4.905 -5.022 0.114
-4.905 -5.022 0.114
-4.904 -5.022 0.115
-4.904 -5.022 0.115
-4.904 -5.022 0.115
-4.904 -5.022 0.115
-2.959 -4.715 1.757
-3.730 -5.125 1.391
-3.491 -5.450 1.958
-2.962 -4.717 1.756
-2.962 -4.717 1.756
-3.317 -5.099 1.778
-3.317 -5.099 1.778
-3.317 -5.099 1.778
-3.317 -5.099 1.778
-3.317 -5.099 1.778
-3.317 -5.099 1.778
-3.317 -5.099 1.778
-3.317 -5.099 1.778
-3.317 -5.099 1.778
-3.317 -5.099 1.778
-3.317 -5.099 1.778
-3.201 -4.643 1.438
-3.201 -4.643 1.438
-3.201 -4.643 1.438
-3.114 -5.002 1.885
-3.657 -5.044 1.382
-3.657 -5.044 1.382
-3.657 -5.044 1.382
-3.657 -5.044 1.382
-3.089 -4.587 1.494
-3.089 -4.587 1.494
-3.491 -5.450 1.957
-3.421 -5.123 1.699
-3.359 -4.824 1.460
-3.405 -4.947 1.536
-3.932 -5.469 1.536
-2.645 -4.238 1.594
-2.645 -4.238 1.594
-4.140 -5.384 1.244
-3.932 -5.469 1.536
-2.814 -4.695 1.882
-4.140 -5.384 1.244
-4.140 -5.384 1.244
-3.657 -5.044 1.382
-3.657 -5.044 1.382
-3.318 -5.099 1.777
-3.318 -5.099 1.777
-5.327 -6.510 1.181
-2.986 -5.000 2.010
-3.037 -5.348 2.308
-4.846 -5.033 0.184
-2.528 -3.565 1.037
-2.701 -4.244 1.545
-3.657 -5.044 1.382
-3.420 -5.123 1.699
-3.420 -5.123 1.699
-3.069 -4.107 1.038
-3.465 -4.650 1.184
-3.465 -4.650 1.184
-3.071 -4.108 1.038
-3.071 -4.108 1.038
-3.488 -4.650 1.162
-3.488 -4.650 1.162