-9.025 -6.974 -2.042
-9.025 -6.974 -2.042
-13.268 -4.571 -8.697
-11.873 -3.787 -8.077
-9.025 -6.974 -2.042
-13.418 -5.280 -8.133
-13.103 -4.622 -8.480
-11.594 -3.837 -7.748
-9.025 -6.974 -2.042
-8.475 -8.910 0.448
-13.267 -4.571 -8.696
-14.117 -4.425 -9.691
-13.374 -4.597 -8.776
-7.845 -5.974 -1.861
-13.272 -4.571 -8.701
-12.887 -4.636 -8.250
-14.115 -4.425 -9.688
-8.473 -8.911 0.451
-13.272 -4.571 -8.701
-8.473 -8.911 0.451
-13.005 -5.330 -7.669
-13.273 -4.571 -8.702
-13.273 -4.570 -8.702
-7.845 -5.974 -1.861
-14.115 -4.425 -9.688
-7.401 -6.171 -1.215
-7.950 -7.142 -0.795
-8.946 -7.474 -1.464
-14.117 -4.461 -9.654
-9.028 -6.973 -2.046
-8.473 -8.911 0.452
-13.275 -4.570 -8.705
-7.403 -6.171 -1.218
-13.008 -5.329 -7.674
-13.008 -5.329 -7.674
-13.380 -4.596 -8.782
-13.380 -4.596 -8.782
-8.374 -7.483 -0.882
-11.958 -3.850 -8.098
-11.886 -3.786 -8.091
-8.374 -7.483 -0.882
-8.473 -8.911 0.451
-13.275 -4.570 -8.705
-7.617 -6.164 -1.456
-13.275 -4.570 -8.705
-7.193 -7.009 -0.171
-8.946 -7.474 -1.464
-8.946 -7.474 -1.465
-11.885 -3.786 -8.090
-13.277 -4.570 -8.707
-12.891 -4.635 -8.254
-8.473 -8.911 0.452
-13.275 -4.570 -8.705
-13.425 -5.279 -8.141
-7.617 -6.164 -1.456
-8.946 -7.474 -1.464
-13.277 -4.570 -8.707
-11.606 -3.836 -7.761
-13.380 -4.596 -8.782
-13.380 -4.596 -8.782
-11.886 -3.786 -8.091
-11.886 -3.786 -8.091
-12.112 -3.830 -8.273
-14.422 -5.149 -9.267
-13.380 -4.596 -8.782
-13.008 -5.329 -7.674
-13.638 -5.295 -8.338
-8.946 -7.474 -1.464
-13.277 -4.570 -8.707
-13.380 -4.596 -8.782
-7.920 -7.498 -0.406
-13.380 -4.596 -8.782
-13.380 -4.596 -8.782
-13.277 -4.570 -8.707
-13.277 -4.570 -8.707
-13.380 -4.596 -8.782
-8.470 -6.610 -1.849
-13.380 -4.596 -8.782
-13.427 -5.279 -8.143
-14.119 -4.424 -9.693
-7.617 -6.164 -1.456
-14.503 -5.124 -9.373
-12.112 -3.830 -8.273
-13.638 -5.295 -8.338
-7.847 -5.973 -1.864
-13.380 -4.596 -8.782
-13.380 -4.596 -8.782
-13.380 -4.596 -8.782
-13.380 -4.596 -8.782
-13.277 -4.570 -8.707
-13.277 -4.570 -8.707
-6.300 -7.991 1.705
-9.028 -6.971 -2.048
-13.386 -4.594 -8.791
-7.848 -5.973 -1.865
-7.848 -5.973 -1.865
-13.645 -5.293 -8.346
-13.386 -4.594 -8.791
-13.386 -4.594 -8.791
-13.386 -4.594 -8.791
-7.403 -6.171 -1.218
-7.196 -7.009 -0.174
-13.386 -4.594 -8.791
-13.386 -4.594 -8.791
-7.963 -7.152 -0.799
-7.626 -6.164 -1.465
-7.848 -5.973 -1.865
-8.472 -7.459 -1.004
-13.387 -4.594 -8.791
-7.963 -7.152 -0.799
-7.897 -6.964 -0.919
-11.678 -3.865 -7.805
-7.848 -5.973 -1.865
-13.387 -4.594 -8.791
-13.445 -5.278 -8.162
-13.026 -5.328 -7.693
-7.495 -6.656 -0.827
-11.859 -3.791 -8.059
-7.403 -6.171 -1.218
-13.288 -4.603 -8.683
-7.195 -7.008 -0.174
-13.297 -4.565 -8.732
-12.119 -3.826 -8.284
-8.145 -6.908 -1.225
-8.566 -8.916 0.363
-11.896 -3.781 -8.106
-9.028 -6.973 -2.046
-11.859 -3.791 -8.059
-11.969 -3.846 -8.115
-7.928 -7.498 -0.415
-8.213 -6.850 -1.351
-9.028 -6.973 -2.046
-13.297 -4.565 -8.732
-13.391 -4.592 -8.798
-7.403 -6.171 -1.218
-13.219 -5.298 -7.916
-6.013 -7.110 1.105
-7.670 -7.293 -0.364
-13.391 -4.592 -8.797
-13.288 -4.603 -8.683
-8.252 -8.882 0.643
-14.139 -4.419 -9.718
-9.116 -7.438 -1.670
-7.705 -7.317 -0.376
-7.849 -5.972 -1.867
-8.070 -6.953 -1.104
-14.139 -4.419 -9.719
-13.391 -4.592 -8.798
-8.383 -7.482 -0.892
-8.255 -8.868 0.626
-7.849 -5.972 -1.867
-7.964 -7.151 -0.801
-9.028 -6.973 -2.046
-9.116 -7.438 -1.670
-13.391 -4.592 -8.798
-13.391 -4.592 -8.798
-13.391 -4.592 -8.798
-9.028 -6.973 -2.046
-6.156 -7.762 1.620
-8.551 -8.904 0.366
-9.067 -7.472 -1.586
-7.964 -7.151 -0.801
-13.451 -5.275 -8.171
-13.288 -4.603 -8.683
-7.932 -8.696 0.777
-9.028 -6.973 -2.046
-13.391 -4.592 -8.797
-6.143 -7.764 1.635
-13.391 -4.592 -8.797
-7.495 -6.656 -0.828
-13.391 -4.592 -8.797
-13.651 -5.291 -8.355
-7.863 -5.988 -1.866
-13.451 -5.275 -8.171
-8.167 -8.718 0.565
-9.065 -6.845 -2.211
-8.383 -7.482 -0.892
-8.167 -8.718 0.565
-9.028 -6.973 -2.046
-14.139 -4.419 -9.719
-8.566 -8.916 0.363
-13.218 -5.298 -7.915
-13.390 -4.592 -8.797
-7.650 -6.840 -0.798
-7.650 -6.840 -0.798
-13.218 -5.298 -7.915
-13.390 -4.592 -8.797
-13.296 -4.565 -8.731
-7.927 -7.498 -0.414
-8.382 -7.481 -0.892
-7.508 -7.548 0.054
-13.391 -4.592 -8.797
-8.228 -6.859 -1.356
-7.898 -6.962 -0.922
-7.849 -5.972 -1.867
-11.969 -3.846 -8.114
-7.964 -7.151 -0.801
-7.546 -6.645 -0.890
-8.551 -8.903 0.366
-7.365 -7.541 0.190
-8.381 -7.481 -0.892
-11.896 -3.781 -8.106
-11.082 -3.644 -7.460
-8.551 -8.903 0.366
-7.849 -5.972 -1.867
-7.507 -7.548 0.055
-13.390 -4.592 -8.797
-13.218 -5.298 -7.915
-7.342 -7.536 0.208
-11.896 -3.781 -8.106
-8.471 -6.612 -1.849
-14.139 -4.419 -9.719
-11.896 -3.781 -8.106
-13.391 -4.592 -8.797
-8.166 -8.718 0.565
-7.650 -6.840 -0.798
-7.927 -7.498 -0.414
-6.401 -8.514 2.124
-8.470 -6.611 -1.848
-8.470 -7.457 -1.004
-13.370 -5.300 -8.065
-13.389 -4.592 -8.796
-7.403 -6.171 -1.218
-8.213 -6.850 -1.350
-8.070 -6.953 -1.104
-7.399 -6.171 -1.213
-12.854 -3.592 -9.252
-11.946 -3.854 -8.084
-7.801 -6.669 -1.119
-8.161 -8.718 0.570
-8.545 -8.903 0.372
-13.374 -4.597 -8.776
-13.422 -5.280 -8.136
-6.480 -7.805 1.336
-8.211 -6.850 -1.348
-14.224 -4.449 -9.772
-11.959 -3.850 -8.099
-7.195 -7.010 -0.172
-13.439 -5.279 -8.155
-13.022 -5.329 -7.688
-13.641 -5.295 -8.342
-7.494 -6.656 -0.827
-13.448 -5.276 -8.167
-5.333 -6.078 0.759
-13.387 -4.593 -8.793
-7.897 -6.962 -0.921
-8.227 -6.860 -1.354
-8.471 -7.460 -1.003
-13.288 -4.603 -8.683
-6.547 -6.037 -0.497
-7.620 -7.140 -0.466
-13.296 -4.565 -8.731
-7.996 -7.296 -0.690
-13.391 -4.592 -8.798
-7.195 -7.008 -0.174
-7.546 -6.645 -0.890
-13.297 -4.565 -8.732
-9.028 -6.973 -2.047
-7.344 -7.535 0.206
-13.391 -4.592 -8.797
-13.451 -5.275 -8.171
-7.650 -6.840 -0.798
-7.228 -7.017 -0.198
-13.296 -4.565 -8.731
-7.269 -8.061 0.802
-13.390 -4.592 -8.797
-11.896 -3.781 -8.106
-7.197 -7.008 -0.176
-13.180 -4.605 -8.574
-13.450 -5.275 -8.170
-7.342 -7.536 0.208
-8.213 -6.850 -1.350
-8.551 -8.903 0.366
-7.649 -6.840 -0.798
-13.389 -4.592 -8.795
-7.494 -6.656 -0.827
-7.494 -6.656 -0.827
-13.389 -4.592 -8.796
-13.449 -5.275 -8.169
-13.449 -5.275 -8.169
-7.926 -7.498 -0.414
-8.228 -6.859 -1.356
-8.255 -8.868 0.626
-6.530 -6.514 -0.002
-13.451 -5.275 -8.171
-13.371 -5.300 -8.066
-6.499 -6.512 0.027
-6.481 -7.804 1.335
-10.993 -3.630 -7.387
-11.897 -3.781 -8.107
-13.297 -4.565 -8.732
-7.546 -6.645 -0.890
-13.391 -4.592 -8.797
-13.391 -4.592 -8.797
-6.365 -7.990 1.640
-7.269 -8.061 0.802
-12.118 -3.826 -8.284
-11.897 -3.781 -8.106
-11.897 -3.781 -8.106
-8.167 -8.718 0.565
-6.491 -7.804 1.326
-7.197 -7.008 -0.177
-13.296 -4.565 -8.731
-7.705 -7.317 -0.375
-6.738 -6.273 -0.454
-13.389 -5.283 -8.101
-13.288 -4.603 -8.683
-13.391 -4.592 -8.797
-6.482 -7.804 1.335
-13.288 -4.603 -8.683
-7.620 -7.140 -0.466
-13.391 -4.592 -8.797
-13.391 -4.592 -8.798
-8.551 -8.903 0.366
-8.227 -6.860 -1.355
-12.877 -3.583 -9.284
-13.295 -4.565 -8.730
-11.858 -3.791 -8.058
-13.295 -4.565 -8.730
-13.295 -4.565 -8.730
-13.295 -4.565 -8.730
-7.494 -6.656 -0.827
-13.450 -5.275 -8.170
-11.968 -3.846 -8.114
-8.551 -8.903 0.366
-11.896 -3.781 -8.106
-13.450 -5.275 -8.170
-9.028 -6.973 -2.046
-7.898 -6.962 -0.922
-6.696 -6.261 -0.423
-13.451 -5.275 -8.171
-14.129 -4.456 -9.670
-13.297 -4.565 -8.731
-13.389 -5.283 -8.101
-11.848 -3.802 -8.037
-11.848 -3.802 -8.037
-13.451 -5.275 -8.171
-11.897 -3.781 -8.107
-13.451 -5.275 -8.171
-13.297 -4.565 -8.732
-13.297 -4.565 -8.732
-11.897 -3.781 -8.107
-13.297 -4.565 -8.732
-7.898 -6.962 -0.922
-11.896 -3.781 -8.106
-11.896 -3.781 -8.106
-11.847 -3.802 -8.036
-7.850 -5.972 -1.867
-13.451 -5.275 -8.171
-13.391 -4.592 -8.798
-13.451 -5.275 -8.171
-7.928 -7.498 -0.415
-6.547 -6.037 -0.497
-13.452 -5.275 -8.172
-14.140 -4.419 -9.720
-7.195 -7.008 -0.174
-6.143 -7.764 1.635
-13.296 -4.565 -8.731
-7.849 -5.972 -1.867
-13.391 -4.592 -8.797
-7.849 -5.972 -1.867
-7.928 -7.498 -0.415
-7.547 -6.645 -0.891
-6.675 -7.847 1.185
-8.228 -6.859 -1.356
-11.969 -3.846 -8.114
-7.197 -7.008 -0.176
-9.067 -7.472 -1.586
-11.969 -3.846 -8.114
-6.493 -7.804 1.324
-8.043 -7.289 -0.743
-11.897 -3.781 -8.107
-7.509 -7.548 0.053
-7.509 -7.548 0.053
-13.451 -5.275 -8.171
-11.969 -3.846 -8.114
-11.897 -3.781 -8.107
-6.401 -8.514 2.124
-7.197 -7.008 -0.176
-13.449 -5.275 -8.169
-11.968 -3.846 -8.113
-6.492 -7.805 1.324
-13.389 -4.592 -8.796
-7.494 -6.656 -0.826
-13.371 -5.300 -8.065
-12.877 -3.583 -9.284
-9.067 -7.472 -1.586
-13.451 -5.275 -8.171
-13.451 -5.275 -8.171
-13.451 -5.275 -8.171
-13.451 -5.275 -8.171
-13.451 -5.275 -8.171
-7.850 -5.972 -1.867
-7.547 -6.645 -0.890
-6.500 -6.511 0.025
-6.162 -7.761 1.613
-6.919 -6.386 -0.518
-7.496 -6.656 -0.828
-8.042 -7.289 -0.743
-13.450 -5.275 -8.170
-6.669 -7.848 1.192
-6.499 -6.512 0.027
-11.969 -3.846 -8.114
-6.493 -7.804 1.324
-13.451 -5.275 -8.171
-11.536 -3.916 -7.610
-6.144 -7.764 1.634
-13.391 -4.592 -8.797
-7.964 -7.151 -0.801
-6.547 -6.037 -0.497
-7.195 -7.888 0.705
-5.562 -5.775 0.223
-8.213 -6.850 -1.351
-12.118 -3.826 -8.284
-6.585 -8.587 2.014
-11.896 -3.781 -8.105
-13.449 -5.275 -8.169
-6.142 -7.764 1.636
-6.738 -6.274 -0.453
-11.896 -3.781 -8.106
-7.496 -6.656 -0.828
-11.897 -3.781 -8.107
-11.897 -3.781 -8.107
-6.493 -7.805 1.324
-13.390 -5.283 -8.102
-13.651 -5.291 -8.355
-6.142 -7.764 1.636
-13.390 -4.592 -8.797
-5.450 -6.069 0.634
-7.495 -6.656 -0.827
-13.451 -5.275 -8.171
-8.043 -7.289 -0.743
-8.043 -7.289 -0.743
-7.898 -6.962 -0.922
-11.858 -3.791 -8.058
-13.390 -4.592 -8.797
-6.482 -7.804 1.334
-7.342 -7.536 0.208
-7.269 -8.062 0.803
-13.451 -5.275 -8.171
-13.451 -5.275 -8.171
-13.451 -5.275 -8.171
-7.495 -6.656 -0.827
-7.927 -7.498 -0.414
-13.389 -5.283 -8.101
-7.403 -6.171 -1.218
-11.896 -3.781 -8.106
-6.385 -7.984 1.614
-13.451 -5.275 -8.171
-11.897 -3.781 -8.106
-6.694 -6.289 -0.393
-6.210 -7.752 1.556
-12.781 -4.672 -8.106
-8.547 -8.905 0.371
-6.145 -7.763 1.632
-7.495 -6.656 -0.827
-5.548 -5.763 0.225
-8.210 -6.850 -1.347
-9.064 -7.473 -1.583
-6.500 -6.512 0.026
-7.343 -7.536 0.207
-7.850 -5.971 -1.868
-6.696 -6.261 -0.423
-13.439 -5.277 -8.157
-7.269 -8.062 0.803
-11.958 -3.847 -8.102
-7.495 -6.656 -0.828
-5.450 -6.070 0.634
-13.382 -5.284 -8.093
-14.140 -4.419 -9.719
-13.391 -4.592 -8.797
-7.717 -6.206 -1.514
-7.495 -6.656 -0.827
-6.788 -7.719 0.937
-4.572 -5.675 1.119
-7.495 -6.656 -0.827
-7.572 -7.039 -0.519
-7.480 -6.660 -0.808
-7.927 -7.498 -0.414
-13.391 -4.592 -8.797
-13.288 -4.603 -8.683
-7.270 -8.061 0.802
-13.389 -5.283 -8.102
-6.481 -7.804 1.335
-6.397 -7.986 1.603
-7.495 -6.656 -0.827
-6.364 -7.990 1.640
-5.527 -5.763 0.247
-5.527 -5.763 0.247
-13.451 -5.275 -8.171
-6.143 -7.764 1.636
-7.270 -8.061 0.803
-8.167 -8.718 0.565
-7.515 -6.633 -0.871
-13.180 -4.605 -8.574
-7.632 -6.853 -0.767
-6.529 -6.513 -0.001
-7.572 -7.039 -0.519
-13.288 -4.603 -8.683
-8.070 -6.953 -1.104
-6.539 -7.842 1.316
-6.153 -7.762 1.624
-6.585 -8.587 2.014
-6.145 -7.763 1.632
-7.197 -7.008 -0.176
-6.491 -7.804 1.325
-11.537 -3.914 -7.614
-7.620 -7.140 -0.466
-6.585 -8.587 2.014
-3.589 -5.279 1.704
-7.403 -6.171 -1.218
-7.510 -6.632 -0.867
-13.286 -4.603 -8.681
-13.179 -4.605 -8.572
-7.513 -6.633 -0.869
-6.738 -6.273 -0.454
-13.391 -4.592 -8.797
-7.898 -6.962 -0.922
-13.391 -4.592 -8.797
-11.897 -3.781 -8.107
-6.501 -6.512 0.025
-7.927 -7.498 -0.414
-6.504 -6.514 0.024
-7.344 -7.535 0.206
-12.954 -5.351 -7.597
-6.300 -7.991 1.705
-6.652 -6.288 -0.352
-5.449 -6.069 0.634
-12.954 -5.351 -7.597
-7.849 -5.972 -1.867
-6.494 -7.801 1.319
-13.451 -5.275 -8.171
-13.391 -4.592 -8.798
-13.391 -4.592 -8.798
-7.495 -6.656 -0.828
-6.696 -6.261 -0.423
-13.389 -5.283 -8.101
-13.451 -5.275 -8.171
-7.174 -7.006 -0.155
-13.391 -4.592 -8.798
-8.213 -6.850 -1.351
-6.529 -6.513 -0.002
-6.155 -7.762 1.622
-8.471 -6.612 -1.849
-11.897 -3.781 -8.107
-11.897 -3.781 -8.107
-7.849 -5.972 -1.867
-8.959 -7.475 -1.476
-8.727 -4.127 -4.617
-13.180 -4.605 -8.574
-7.514 -6.633 -0.870
-11.897 -3.781 -8.107
-8.213 -6.850 -1.351
-5.528 -5.764 0.246
-6.155 -7.762 1.622
-13.391 -4.592 -8.797
-5.527 -5.763 0.247
-6.499 -6.512 0.026
-8.213 -6.850 -1.351
-6.696 -6.261 -0.423
-7.176 -7.006 -0.158
-8.043 -7.289 -0.743
-6.652 -6.288 -0.352
-7.174 -8.709 1.546
-11.897 -3.781 -8.107
-7.496 -6.656 -0.829
-11.969 -3.846 -8.114
-5.528 -5.763 0.246
-6.369 -7.986 1.632
-6.144 -7.764 1.633
-7.210 -7.888 0.689
-7.247 -8.701 1.465
-5.527 -5.763 0.246
-11.859 -3.791 -8.059
-13.180 -4.605 -8.574
-13.391 -4.592 -8.797
-7.195 -7.008 -0.174
-11.858 -3.791 -8.058
-6.493 -7.804 1.324
-6.304 -7.986 1.697
-6.540 -7.843 1.316
-13.391 -4.592 -8.797
-13.180 -4.605 -8.574
-11.897 -3.781 -8.107
-8.551 -8.903 0.366
-7.495 -6.656 -0.828
-10.699 -4.308 -6.437
-7.537 -6.636 -0.889
-6.537 -7.843 1.320
-7.547 -6.645 -0.890
-7.202 -7.892 0.700
-7.547 -6.645 -0.890
-7.479 -6.660 -0.807
-7.239 -7.895 0.667
-13.181 -4.605 -8.574
-6.213 -7.767 1.568
-7.195 -7.008 -0.174
-7.342 -7.536 0.208
-6.502 -6.513 0.025
-11.969 -3.846 -8.114
-11.897 -3.781 -8.107
-7.996 -7.296 -0.690
-7.244 -8.701 1.468
-7.495 -6.656 -0.828
-13.452 -5.275 -8.172
-6.143 -7.764 1.635
-6.528 -6.513 -0.000
-7.495 -6.656 -0.827
-6.651 -6.288 -0.352
-7.514 -6.633 -0.870
-6.502 -6.513 0.025
-7.195 -7.008 -0.174
-7.514 -6.633 -0.870
-13.181 -4.605 -8.574
-6.143 -7.764 1.635
-13.181 -4.605 -8.574
-11.897 -3.781 -8.107
-5.528 -5.763 0.246
-7.178 -8.707 1.541
-6.504 -6.513 0.023
-7.515 -6.633 -0.871
-6.501 -6.512 0.025
-6.548 -7.806 1.270
-7.248 -8.701 1.464
-8.167 -8.718 0.565
-13.451 -5.275 -8.171
-6.537 -7.806 1.281
-7.514 -6.633 -0.869
-6.537 -7.806 1.281
-7.230 -7.897 0.678
-7.230 -7.897 0.678
-13.372 -5.300 -8.067
-6.142 -7.764 1.636
-6.481 -7.804 1.335
-7.495 -6.656 -0.827
-6.143 -7.764 1.636
-6.481 -7.804 1.335
-6.537 -7.806 1.281
-13.451 -5.275 -8.171
-7.871 -6.960 -0.898
-7.177 -7.006 -0.158
-7.515 -6.633 -0.871
-7.177 -7.006 -0.158
-5.450 -6.070 0.634
-8.783 -4.098 -4.702
-7.513 -6.633 -0.869
-6.485 -7.792 1.319
-6.485 -7.792 1.319
-7.172 -7.004 -0.156
-5.354 -6.069 0.729
-13.451 -5.275 -8.172
-6.481 -7.804 1.335
-13.451 -5.275 -8.172
-6.528 -6.513 -0.000
-8.471 -6.612 -1.849
-7.473 -6.652 -0.810
-6.652 -6.288 -0.352
-6.492 -7.802 1.322
-5.528 -5.764 0.246
-7.496 -6.656 -0.828
-6.529 -6.513 -0.001
-6.503 -6.512 0.024
-11.537 -3.917 -7.611
-7.547 -6.645 -0.891
-7.547 -6.645 -0.891
-13.288 -4.603 -8.683
-7.243 -8.702 1.470
-13.372 -5.300 -8.067
-7.996 -7.296 -0.690
-6.383 -7.988 1.619
-7.326 -7.534 0.222
-8.013 -7.172 -0.828
-12.119 -3.826 -8.284
-7.547 -6.645 -0.891
-6.193 -7.282 1.101
-6.483 -6.511 0.042
-7.494 -6.644 -0.838
-7.118 -8.231 1.127
-6.417 -7.968 1.566
-6.207 -7.752 1.558
-7.157 -7.900 0.754
-6.564 -7.793 1.241
-6.494 -6.510 0.031
-7.541 -6.646 -0.884
-3.589 -5.279 1.704
-7.169 -7.004 -0.152
-7.492 -6.656 -0.824
-7.511 -6.633 -0.867
-7.315 -7.532 0.232
-5.456 -6.066 0.624
-10.267 -10.230 -0.023
-10.267 -10.230 -0.023
-9.421 -9.928 0.523
-10.180 -10.094 -0.070
-10.429 -10.165 -0.250
-10.011 -10.118 0.123
-10.303 -10.220 -0.068
-10.273 -10.229 -0.031
-9.408 -9.922 0.529
-10.334 -10.169 -0.151
-9.479 -9.882 0.418
-10.334 -10.169 -0.151
-10.429 -10.165 -0.250
-10.322 -10.209 -0.099
-10.333 -10.169 -0.149
-10.163 -10.234 0.085
-10.333 -10.169 -0.149
-10.333 -10.169 -0.149
-10.322 -10.209 -0.099
-10.551 -9.691 -0.847
-10.171 -10.068 -0.088
-10.270 -10.227 -0.029
-9.896 -10.387 0.506
-9.906 -9.409 -0.486
-9.684 -9.356 -0.315
-10.320 -10.206 -0.100
-10.182 -10.018 -0.150
-10.016 -10.118 0.117
-10.182 -10.018 -0.149
-10.188 -10.094 -0.079
-10.369 -10.395 0.041
-9.896 -10.388 0.506
-10.188 -10.094 -0.080
-10.247 -10.236 0.003
-10.188 -10.094 -0.079
-9.896 -10.388 0.507
-9.694 -9.503 -0.176
-10.188 -10.094 -0.080
-10.159 -10.233 0.088
-10.188 -10.094 -0.080
-9.481 -9.806 0.340
-9.426 -9.919 0.508
-10.159 -10.233 0.088
-10.159 -10.233 0.088
-10.188 -10.094 -0.079
-10.159 -10.233 0.088
-10.188 -10.094 -0.080
-10.336 -10.170 -0.152
-10.151 -10.170 0.034
-9.220 -9.456 0.251
-10.189 -10.093 -0.080
-10.023 -9.430 -0.583
-10.435 -10.165 -0.257
-9.823 -9.432 -0.378
-9.684 -9.355 -0.316
-10.271 -10.227 -0.030
-9.219 -9.456 0.252
-10.296 -10.409 0.128
-9.581 -9.947 0.381
-9.684 -9.364 -0.308
-10.349 -10.401 0.067
-9.480 -9.796 0.331
-9.581 -9.947 0.381
-10.161 -10.232 0.085
-9.896 -10.387 0.506
-10.161 -10.232 0.085
-10.183 -10.018 -0.150
-10.161 -10.233 0.086
-10.189 -10.093 -0.080
-9.822 -9.432 -0.378
-10.189 -10.093 -0.080
-10.435 -10.165 -0.257
-10.339 -10.169 -0.157
-10.348 -10.401 0.067
-10.348 -10.401 0.067
-9.423 -9.918 0.510
-10.183 -10.018 -0.150
-10.161 -10.233 0.086
-10.259 -10.174 -0.071
-9.906 -9.409 -0.486
-10.183 -10.018 -0.150
-10.189 -10.093 -0.080
-10.189 -10.093 -0.080
-10.023 -9.430 -0.581
-9.235 -9.621 0.401
-10.016 -10.118 0.117
-10.182 -10.018 -0.149
-10.016 -10.118 0.117
-10.016 -10.118 0.117
-10.182 -10.018 -0.149
-10.188 -10.094 -0.080
-10.515 -10.163 -0.337
-10.188 -10.094 -0.080
-10.182 -10.018 -0.149
-9.582 -9.948 0.380
-10.188 -10.094 -0.080
-9.487 -9.884 0.413
-9.906 -9.409 -0.486
-10.188 -10.094 -0.079
-9.823 -9.432 -0.378
-10.182 -10.018 -0.149
-9.481 -9.805 0.339
-9.896 -10.388 0.507
-9.683 -9.367 -0.304
-9.823 -9.432 -0.378
-10.188 -10.094 -0.080
-10.435 -10.165 -0.257
-10.339 -10.169 -0.157
-10.373 -10.217 -0.142
-9.682 -9.357 -0.313
-9.786 -9.992 0.221
-10.413 -10.223 -0.176
-9.545 -9.777 0.246
-9.232 -9.543 0.326
-9.567 -9.604 0.051
-10.367 -10.395 0.042
-10.435 -10.164 -0.257
-9.663 -10.009 0.360
-9.233 -9.543 0.325
-9.895 -10.387 0.507
-10.188 -10.094 -0.080
-9.235 -9.621 0.401
-10.435 -10.164 -0.257
-10.435 -10.164 -0.257
-10.188 -10.094 -0.080
-9.894 -10.387 0.508
-9.820 -9.432 -0.376
-10.188 -10.094 -0.080
-10.340 -10.169 -0.157
-10.188 -10.093 -0.080
-10.348 -10.401 0.068
-10.435 -10.164 -0.257
-9.219 -9.456 0.252
-10.188 -10.094 -0.080
-9.820 -9.432 -0.376
-10.246 -10.303 0.072
-9.581 -9.947 0.381
-10.022 -9.429 -0.582
-10.022 -9.429 -0.582
-9.896 -10.387 0.507
-9.218 -9.456 0.252
-9.153 -9.668 0.530
-10.188 -10.094 -0.079
-10.188 -10.094 -0.079
-10.188 -10.094 -0.079
-10.150 -10.170 0.034
-9.550 -9.779 0.242
-9.235 -9.621 0.401
-9.820 -9.432 -0.376
-10.570 -10.407 -0.148
-9.676 -10.059 0.399
-10.188 -10.094 -0.079
-9.797 -10.046 0.264
-10.349 -10.402 0.067
-10.434 -10.165 -0.255
-10.188 -10.094 -0.079
-10.221 -10.408 0.202
-9.684 -9.353 -0.319
-10.228 -10.163 -0.051
-10.349 -10.402 0.068
-9.234 -9.621 0.402
-10.046 -9.934 -0.097
-9.906 -9.408 -0.487
-10.180 -10.018 -0.148
-10.187 -10.094 -0.078
-10.327 -10.223 -0.090
-9.233 -9.622 0.404
-9.821 -9.432 -0.376
-10.429 -10.347 -0.067
-9.480 -9.797 0.332
-9.486 -9.883 0.413
-10.015 -10.118 0.117
-10.181 -10.018 -0.148
-10.328 -10.223 -0.091
-10.188 -10.094 -0.078
-10.188 -10.094 -0.078
-9.549 -9.779 0.244
-10.429 -10.347 -0.067
-9.235 -9.621 0.402
-10.435 -10.165 -0.256
-10.246 -10.303 0.072
-10.317 -10.193 -0.110
-10.015 -10.118 0.118
-10.246 -10.303 0.072
-10.265 -10.227 -0.025
-10.371 -10.216 -0.141
-9.153 -9.668 0.530
-10.188 -10.094 -0.079
-9.598 -10.034 0.451
-10.188 -10.094 -0.079
-10.188 -10.094 -0.079
-10.267 -10.227 -0.026
-10.435 -10.165 -0.256
-10.349 -10.401 0.067
-10.188 -10.094 -0.080
-9.922 -10.387 0.481
-10.188 -10.094 -0.079
-9.235 -9.621 0.401
-10.157 -10.232 0.089
-9.798 -10.046 0.263
-9.094 -9.472 0.393
-9.894 -10.387 0.508
-10.157 -10.232 0.089
-9.905 -9.408 -0.486
-10.434 -10.223 -0.196
-10.182 -10.018 -0.150
-10.157 -10.232 0.089
-9.550 -9.778 0.242
-9.235 -9.621 0.401
-10.245 -10.235 0.005
-10.321 -10.197 -0.111
-10.177 -10.019 -0.143
-10.548 -9.692 -0.843
-10.880 -9.609 -1.256
-10.238 -10.166 -0.057
-10.516 -10.163 -0.339
-10.187 -10.094 -0.078
-9.948 -10.382 0.450
-10.570 -10.408 -0.148
-10.427 -10.347 -0.065
-10.373 -10.217 -0.142
-10.222 -10.391 0.183
-10.022 -9.431 -0.580
-9.233 -9.622 0.404
-10.267 -10.228 -0.025
-9.822 -9.432 -0.377
-10.187 -10.094 -0.077
-9.905 -9.409 -0.485
-10.345 -10.403 0.073
-9.233 -9.622 0.403
-9.675 -10.060 0.401
-10.187 -10.094 -0.077
-10.180 -10.018 -0.147
-10.187 -10.094 -0.077
-9.893 -10.388 0.510
-10.187 -10.094 -0.077
-10.045 -9.934 -0.096
-10.180 -10.018 -0.147
-9.893 -10.388 0.510
-9.796 -10.046 0.265
-9.480 -9.799 0.334
-10.329 -10.223 -0.092
-10.180 -10.018 -0.147
-9.949 -10.383 0.449
-10.180 -10.018 -0.147
-10.187 -10.094 -0.077
-9.150 -9.669 0.533
-10.319 -10.194 -0.112
-9.578 -9.947 0.384
-9.234 -9.621 0.402
-9.234 -9.621 0.402
-10.187 -10.094 -0.078
-10.181 -10.018 -0.148
-9.796 -10.046 0.265
-9.478 -9.796 0.333
-10.337 -10.169 -0.154
-9.863 -10.023 0.175
-9.682 -9.357 -0.312
-10.187 -10.094 -0.078
-10.187 -10.094 -0.078
-10.159 -10.233 0.088
-10.187 -10.094 -0.078
-10.181 -10.018 -0.148
-10.246 -10.236 0.003
-6.686 -7.558 0.886
-6.580 -7.357 0.790
-6.817 -7.624 0.821
-6.215 -7.560 1.359
-5.479 -6.062 0.597
-6.824 -7.619 0.808
-5.777 -6.935 1.171
-5.537 -6.834 1.310
-5.069 -6.709 1.655
-5.776 -6.935 1.171
-6.647 -7.642 1.008
-6.647 -7.642 1.008
-6.647 -7.642 1.008
-6.592 -7.352 0.773
-5.479 -6.062 0.597
-5.776 -6.935 1.171
-5.069 -6.709 1.655
-6.647 -7.642 1.008
-6.824 -7.619 0.808
-5.778 -6.960 1.194
-6.209 -7.560 1.364
-6.209 -7.560 1.365
-5.775 -6.935 1.172
-6.646 -7.642 1.008
-6.592 -7.352 0.773
-6.647 -7.642 1.007
-5.776 -6.935 1.171
-6.647 -7.642 1.007
-6.592 -7.352 0.773
-5.776 -6.935 1.171
-6.647 -7.642 1.007
-6.729 -7.530 0.815
-5.068 -6.709 1.655
-5.068 -6.709 1.655
-6.647 -7.642 1.008
-5.345 -6.752 1.420
-6.592 -7.352 0.773
-5.776 -6.935 1.171
-6.592 -7.352 0.773
-5.068 -6.709 1.655
-6.593 -7.352 0.773
-6.648 -7.643 1.007
-5.778 -6.960 1.194
-6.592 -7.352 0.773
-5.163 -6.712 1.563
-6.502 -7.925 1.435
-6.525 -7.471 0.960
-5.536 -6.833 1.310
-5.346 -6.752 1.420
-5.510 -6.084 0.589
-6.729 -7.530 0.814
-6.729 -7.530 0.814
-5.537 -6.834 1.309
-5.778 -6.960 1.194
-5.162 -6.712 1.564
-6.552 -7.661 1.121
-6.500 -7.925 1.437
-6.647 -7.643 1.008
-6.525 -7.471 0.960
-6.729 -7.530 0.814
-6.525 -7.471 0.960
-6.729 -7.530 0.814
-5.778 -6.960 1.194
-5.162 -6.712 1.564
-5.777 -6.935 1.171
-6.648 -7.643 1.007
-6.525 -7.471 0.960
-5.775 -6.935 1.172
-5.536 -6.833 1.310
-6.541 -7.885 1.358
-5.775 -6.935 1.172
-6.477 -7.955 1.491
-6.525 -7.471 0.960
-5.703 -5.754 0.063
-5.496 -6.771 1.288
-6.648 -7.642 1.006
-5.069 -6.709 1.655
-5.069 -6.709 1.655
-5.777 -6.935 1.170
-5.163 -6.712 1.563
-5.480 -6.062 0.596
-5.163 -6.712 1.563
-5.346 -6.752 1.419
-5.346 -6.752 1.419
-6.541 -7.885 1.357
-6.593 -7.352 0.772
-5.778 -6.960 1.194
-5.480 -6.062 0.596
-6.500 -7.925 1.437
-6.500 -7.925 1.437
-5.346 -6.752 1.419
-5.480 -6.062 0.596
-5.779 -6.960 1.193
-6.526 -7.470 0.959
-5.069 -6.709 1.654
-5.776 -6.935 1.171
-5.163 -6.712 1.563
-5.776 -6.935 1.171
-5.163 -6.712 1.563
-5.163 -6.712 1.563
-6.526 -7.470 0.958
-5.511 -6.085 0.588
-5.162 -6.712 1.564
-6.552 -7.660 1.120
-5.537 -6.833 1.310
-5.069 -6.709 1.654
-5.480 -6.062 0.596
-6.526 -7.470 0.958
-5.163 -6.712 1.563
-6.593 -7.352 0.771
-5.778 -6.960 1.194
-4.870 -6.288 1.431
-6.210 -7.560 1.363
-6.336 -7.143 0.817
-6.183 -7.616 1.446
-6.500 -7.925 1.437
-5.069 -6.710 1.655
-6.594 -7.352 0.771
-5.694 -5.744 0.061
-4.870 -6.287 1.431
-6.593 -7.351 0.771
-5.668 -6.916 1.261
-6.211 -7.560 1.362
-6.211 -7.560 1.362
-5.777 -6.960 1.194
-5.511 -6.085 0.588
-5.480 -6.062 0.596
-6.500 -7.924 1.437
-6.730 -7.530 0.813
-5.777 -6.935 1.171
-6.730 -7.530 0.813
-6.503 -7.925 1.434
-6.730 -7.530 0.813
-6.593 -7.352 0.772
-5.480 -6.062 0.596
-6.182 -7.616 1.447
-5.776 -6.935 1.171
-6.593 -7.351 0.772
-6.593 -7.352 0.772
-6.541 -7.885 1.357
-5.778 -6.960 1.194
-5.776 -6.935 1.171
-6.730 -7.530 0.813
-7.659 -6.649 -0.999
-5.777 -6.935 1.170
-6.526 -7.470 0.959
-6.730 -7.530 0.813
-6.730 -7.530 0.813
-6.730 -7.530 0.813
-6.730 -7.530 0.813
-5.694 -5.744 0.061
-6.730 -7.530 0.813
-6.480 -7.955 1.487
-6.730 -7.530 0.813
-5.215 -6.439 1.239
-6.526 -7.470 0.958
-6.217 -7.560 1.356
-6.490 -6.505 0.029
-6.477 -7.955 1.490
-5.345 -6.752 1.420
-5.694 -5.744 0.061
-6.201 -7.481 1.294
-6.594 -7.352 0.771
-5.721 -6.804 1.096
-6.218 -7.752 1.548
-6.595 -7.352 0.771
-5.069 -6.709 1.654
-5.668 -6.917 1.261
-6.502 -7.924 1.434
-6.218 -7.752 1.548
-5.069 -6.710 1.654
-6.214 -7.750 1.550
-5.501 -6.822 1.335
-6.542 -7.342 0.814
-6.448 -7.957 1.522
-5.754 -6.928 1.187
-6.686 -7.557 0.886
-7.621 -6.668 -0.941
-6.526 -7.470 0.959
-5.346 -6.752 1.419
-6.504 -7.925 1.433
-5.054 -6.329 1.289
-5.054 -6.329 1.289
-6.593 -7.352 0.772
-3.588 -5.279 1.706
-6.731 -7.530 0.812
-6.288 -7.755 1.481
-5.511 -6.085 0.588
-6.527 -7.470 0.958
-6.495 -7.790 1.307
-5.069 -6.709 1.654
-6.547 -7.557 1.022
-6.218 -7.752 1.548
-5.481 -6.062 0.595
-7.330 -7.008 -0.309
-5.668 -6.917 1.261
-6.731 -7.530 0.812
-6.548 -7.557 1.022
-6.731 -7.530 0.812
-4.157 -5.863 1.720
-6.671 -7.835 1.178
-5.481 -6.062 0.595
-6.594 -7.352 0.770
-5.779 -6.960 1.193
-6.594 -7.352 0.770
-6.731 -7.530 0.812
-5.346 -6.752 1.419
-6.731 -7.530 0.812
-5.481 -6.062 0.595
-6.373 -7.530 1.170
-5.668 -6.917 1.261
-6.502 -7.924 1.435
-6.218 -7.752 1.548
-6.731 -7.530 0.812
-6.217 -7.560 1.357
-6.731 -7.530 0.812
-5.054 -6.329 1.289
-6.527 -7.470 0.958
-5.069 -6.709 1.654
-6.731 -7.530 0.812
-5.164 -6.712 1.562
-6.495 -7.790 1.307
-5.668 -6.917 1.261
-6.527 -7.470 0.957
-5.778 -6.960 1.194
-5.537 -6.833 1.309
-5.069 -6.709 1.654
-4.884 -6.537 1.667
-4.972 -6.060 1.102
-6.288 -7.755 1.481
-6.234 -7.752 1.532
-6.209 -7.752 1.557
-5.537 -6.833 1.309
-7.660 -6.649 -1.000
-5.667 -6.917 1.262
-5.004 -6.055 1.065
-5.511 -6.085 0.588
-6.495 -7.790 1.307
-6.595 -7.352 0.770
-5.163 -6.712 1.562
-4.922 -6.296 1.388
-7.235 -6.999 -0.223
-5.069 -6.709 1.654
-5.049 -6.324 1.290
-3.382 -4.668 1.298
-7.355 -6.722 -0.621
-3.875 -5.488 1.627
-3.221 -4.662 1.454
-3.375 -4.668 1.305
-3.375 -4.668 1.305
-3.172 -4.668 1.508
-4.087 -5.566 1.494
-3.375 -4.668 1.305
-6.529 -7.998 1.483
-4.087 -5.566 1.494
-7.355 -6.722 -0.621
-7.355 -6.722 -0.621
-5.589 -5.776 0.199
-3.373 -4.668 1.307
-4.087 -5.566 1.494
-4.087 -5.566 1.494
-3.375 -4.668 1.305
-7.323 -6.732 -0.579
-7.355 -6.722 -0.621
-3.375 -4.668 1.306
-7.323 -6.732 -0.579
-5.143 -5.856 0.723
-3.374 -4.668 1.306
-7.323 -6.732 -0.579
-6.517 -7.523 1.020
-6.490 -7.979 1.503
-3.876 -5.489 1.627
-2.453 -4.934 2.492
-3.375 -4.668 1.305
-6.407 -7.321 0.928
-4.082 -4.637 0.569
-3.875 -5.488 1.627
-3.178 -4.668 1.501
-3.325 -5.351 2.040
-3.178 -4.668 1.501
-3.875 -5.488 1.627
-6.439 -7.968 1.543
-3.375 -4.668 1.305
-3.875 -5.488 1.627
-6.804 -8.130 1.339
-3.481 -4.661 1.192
-6.519 -7.524 1.019
-6.529 -7.998 1.483
-7.354 -6.722 -0.620
-7.340 -6.726 -0.603
-7.354 -6.722 -0.620
-7.167 -9.146 1.995
-3.022 -4.727 1.717
-3.898 -5.496 1.613
-3.429 -4.661 1.244
-7.355 -6.722 -0.621
-7.355 -6.722 -0.621
-3.898 -5.497 1.613
-6.529 -7.998 1.484
-3.375 -4.668 1.306
-6.519 -7.524 1.019
-3.876 -5.489 1.627
-6.517 -7.523 1.020
-4.745 -5.788 1.056
-7.322 -6.732 -0.579
-6.439 -7.968 1.543
-7.355 -6.722 -0.621
-6.519 -7.524 1.019
-2.680 -4.541 1.873
-6.804 -8.129 1.338
-7.355 -6.722 -0.621
-3.024 -4.727 1.715
-5.118 -5.739 0.636
-7.355 -6.722 -0.621
-3.374 -4.668 1.306
-6.529 -7.998 1.483
-3.875 -5.488 1.627
-7.355 -6.722 -0.621
-3.029 -4.727 1.710
-7.407 -6.740 -0.656
-7.167 -9.146 1.995
-7.355 -6.722 -0.621
-3.898 -5.497 1.612
-6.529 -7.998 1.484
-6.529 -7.998 1.484
-6.804 -8.013 1.221
-7.452 -6.718 -0.722
-3.875 -5.488 1.627
-3.221 -4.662 1.454
-3.898 -5.497 1.612
-3.375 -4.668 1.305
-7.571 -9.315 1.759
-3.374 -4.668 1.307
-4.087 -5.566 1.493
-6.517 -7.523 1.020
-6.365 -7.439 1.088
-6.529 -7.998 1.483
-5.178 -5.941 0.774
-6.407 -8.042 1.647
-3.875 -5.488 1.627
-5.202 -5.954 0.765
-3.875 -5.488 1.627
-7.355 -6.722 -0.621
-7.355 -6.722 -0.621
-7.407 -6.740 -0.656
-7.407 -6.740 -0.656
-6.604 -6.343 -0.250
-7.355 -6.722 -0.621
-6.517 -7.523 1.020
-2.899 -5.025 2.139
-7.355 -6.722 -0.621
-6.529 -7.998 1.484
-7.430 -6.734 -0.685
-5.709 -5.753 0.056
-7.407 -6.740 -0.656
-6.439 -7.968 1.543
-7.623 -6.668 -0.944
-7.354 -6.722 -0.620
-3.375 -4.668 1.306
-5.067 -5.585 0.531
-7.355 -6.722 -0.621
-5.023 -5.414 0.405
-3.179 -4.667 1.500
-5.206 -5.975 0.781
-7.355 -6.722 -0.621
-3.875 -5.488 1.627
-3.875 -5.488 1.627
-2.862 -5.027 2.177
-2.835 -4.938 2.116
-3.899 -5.497 1.612
-3.429 -4.661 1.244
-6.498 -8.030 1.546
-4.745 -5.787 1.056
-3.375 -4.668 1.306
-3.899 -5.497 1.612
-3.221 -4.662 1.454
-4.361 -6.244 1.897
-4.087 -5.566 1.493
-3.221 -4.662 1.454
-6.365 -7.439 1.088
-6.529 -7.998 1.484
-7.336 -6.729 -0.596
-4.746 -5.787 1.056
-6.367 -7.440 1.087
-5.647 -5.775 0.140
-3.875 -5.488 1.627
-5.709 -5.753 0.056
-7.354 -6.722 -0.620
-7.354 -6.722 -0.620
-7.323 -6.732 -0.579
-4.086 -5.566 1.494
-7.354 -6.722 -0.620
-7.624 -6.668 -0.944
-6.517 -7.523 1.020
-7.354 -6.722 -0.620
-7.354 -6.722 -0.620
-4.599 -5.204 0.619
-4.098 -5.570 1.486
-3.872 -5.485 1.628
-6.466 -7.523 1.071
-4.029 -5.476 1.461
-6.528 -7.998 1.484
-7.350 -6.723 -0.615
-3.352 -4.670 1.330
-5.702 -5.755 0.065
-3.869 -5.486 1.631
-3.869 -5.486 1.631
-5.639 -5.777 0.149
-3.869 -5.486 1.631
-7.401 -6.741 -0.648
-5.139 -5.847 0.719
-6.594 -6.344 -0.240
-7.350 -6.723 -0.615
-2.693 -4.784 2.104
-7.570 -9.314 1.759
-7.350 -6.723 -0.615
-4.082 -5.565 1.497
-7.400 -6.741 -0.647
-7.350 -6.723 -0.615
-6.438 -7.968 1.544
-7.350 -6.723 -0.615
-6.593 -6.344 -0.238
-6.467 -7.524 1.070
-3.870 -5.486 1.631
-7.617 -6.670 -0.936
-3.743 -5.177 1.445
-6.465 -7.523 1.071
-3.870 -5.486 1.631
-7.319 -6.733 -0.574
-4.082 -5.565 1.497
-7.401 -6.741 -0.648
-7.401 -6.741 -0.648
-6.466 -7.523 1.071
-6.490 -7.979 1.504
-7.350 -6.723 -0.615
-7.612 -6.664 -0.937
-7.350 -6.723 -0.615
-7.446 -6.720 -0.715
-4.028 -4.709 0.696
-3.406 -4.663 1.269
-7.616 -6.670 -0.935
-6.594 -6.344 -0.239
-6.468 -7.524 1.070
-3.351 -4.670 1.331
-6.762 -6.293 -0.457
-5.639 -5.777 0.149
-5.639 -5.777 0.149
-2.887 -5.028 2.153
-2.818 -4.942 2.136
-7.514 -6.672 -0.830
-5.639 -5.776 0.149
-3.197 -4.664 1.480
-7.350 -6.723 -0.616
-7.350 -6.723 -0.616
-7.350 -6.723 -0.616
-7.350 -6.723 -0.616
-7.350 -6.723 -0.616
-7.350 -6.723 -0.616
-7.401 -6.741 -0.648
-7.350 -6.723 -0.616
-6.595 -6.344 -0.240
-5.639 -5.776 0.149
-6.594 -6.344 -0.240
-6.600 -6.327 -0.262
-7.538 -6.658 -0.869
-2.847 -5.030 2.196
-7.350 -6.723 -0.616
-3.368 -4.691 1.336
-7.486 -6.685 -0.789
-3.158 -4.670 1.524
-7.401 -6.741 -0.648
-7.350 -6.723 -0.616
-6.066 -6.475 0.423
-5.946 -6.449 0.516
-6.066 -6.475 0.423