-17.245 -8.704 -8.623
-10.446 -11.189 0.741
-9.214 -11.305 2.092
-11.258 -11.104 -0.146
-10.465 -11.191 0.725
-15.778 -8.668 -7.161
-10.466 -11.190 0.724
-9.220 -11.305 2.086
-17.024 -8.722 -8.382
-8.721 -9.236 0.507
-17.025 -8.720 -8.386
-10.496 -9.452 -1.064
-8.842 -9.238 0.391
-11.193 -11.099 -0.089
-15.797 -8.663 -7.186
-10.482 -11.188 0.705
-15.505 -8.682 -6.876
-15.505 -8.682 -6.876
-15.505 -8.682 -6.876
-16.961 -8.740 -8.262
-17.037 -8.717 -8.402
-10.017 -10.301 0.293
-15.505 -7.759 -7.762
-15.679 -7.738 -7.957
-11.275 -11.102 -0.167
-8.702 -10.878 2.171
-9.833 -12.447 2.624
-14.205 -7.508 -6.675
-15.505 -8.682 -6.876
-12.655 -11.093 -1.575
-15.505 -7.759 -7.762
-9.835 -12.446 2.621
-10.488 -11.186 0.697
-15.797 -8.663 -7.186
-16.665 -8.153 -8.594
-10.596 -11.202 0.605
-15.797 -8.663 -7.186
-15.797 -8.663 -7.186
-10.051 -10.272 0.231
-8.701 -10.881 2.174
-15.796 -8.663 -7.184
-15.796 -8.663 -7.184
-12.655 -11.093 -1.575
-11.196 -11.099 -0.093
-17.273 -8.694 -8.662
-14.208 -7.462 -6.724
-16.664 -8.153 -8.593
-16.247 -9.183 -7.109
-17.037 -8.717 -8.402
-15.505 -8.682 -6.876
-17.274 -8.694 -8.662
-16.755 -8.757 -8.040
-15.796 -8.663 -7.185
-17.273 -8.694 -8.662
-14.212 -7.510 -6.680
-17.037 -8.717 -8.402
-15.505 -7.759 -7.762
-16.654 -8.323 -8.360
-8.702 -10.879 2.172
-16.755 -8.757 -8.040
-15.678 -7.738 -7.956
-15.796 -8.663 -7.185
-8.699 -10.880 2.177
-8.699 -10.880 2.177
-10.016 -10.299 0.293
-16.654 -8.323 -8.360
-10.055 -10.276 0.231
-16.062 -8.833 -7.247
-17.037 -8.717 -8.402
-13.427 -6.788 -6.674
-10.486 -11.186 0.699
-11.198 -11.099 -0.095
-9.931 -10.275 0.353
-16.664 -8.153 -8.593
-15.505 -8.682 -6.876
-9.931 -10.278 0.356
-8.829 -9.241 0.404
-16.481 -8.180 -8.382
-10.607 -9.436 -1.197
-15.743 -8.092 -7.736
-15.679 -7.738 -7.956
-11.197 -11.099 -0.094
-10.488 -11.186 0.697
-16.205 -9.164 -7.084
-15.797 -8.663 -7.185
-17.037 -8.717 -8.402
-15.679 -7.738 -7.957
-16.246 -9.183 -7.108
-16.961 -8.740 -8.262
-17.037 -8.717 -8.402
-15.679 -7.738 -7.956
-15.244 -8.608 -6.686
-15.244 -8.608 -6.686
-15.679 -7.738 -7.957
-10.321 -12.446 2.135
-17.037 -8.717 -8.402
-10.481 -11.188 0.706
-17.274 -8.694 -8.662
-16.059 -8.833 -7.244
-16.654 -8.323 -8.361
-16.480 -8.180 -8.382
-10.469 -9.456 -1.028
-16.249 -9.183 -7.112
-15.797 -8.663 -7.185
-15.797 -8.663 -7.185
-11.281 -11.101 -0.172
-14.199 -7.460 -6.718
-15.678 -7.738 -7.955
-9.931 -10.276 0.355
-15.242 -8.608 -6.684
-17.037 -8.717 -8.401
-11.190 -11.100 -0.085
-16.056 -8.832 -7.242
-16.754 -8.757 -8.039
-16.960 -8.740 -8.261
-11.190 -11.099 -0.086
-13.117 -12.486 -0.646
-7.969 -10.428 2.470
-15.801 -8.662 -7.191
-16.249 -9.237 -7.052
-17.284 -8.693 -8.673
-15.682 -7.736 -7.962
-15.802 -8.662 -7.193
-15.511 -8.681 -6.883
-11.206 -11.097 -0.104
-16.968 -8.739 -8.270
-8.838 -9.240 0.397
-16.257 -9.183 -7.120
-8.745 -9.232 0.479
-15.508 -7.757 -7.768
-17.047 -8.716 -8.413
-15.802 -8.662 -7.193
-16.257 -9.182 -7.121
-16.257 -9.183 -7.120
-9.934 -10.280 0.356
-15.771 -8.504 -7.291
-9.842 -12.448 2.616
-16.492 -8.179 -8.393
-16.259 -9.180 -7.127
-17.285 -8.693 -8.674
-16.215 -9.079 -7.190
-8.704 -10.883 2.174
-7.964 -10.431 2.479
-17.047 -8.716 -8.413
-17.047 -8.716 -8.413
-15.511 -8.681 -6.883
-15.511 -8.681 -6.883
-17.047 -8.716 -8.413
-10.594 -9.441 -1.179
-17.284 -8.693 -8.673
-15.771 -8.504 -7.291
-16.491 -8.179 -8.393
-16.491 -8.179 -8.393
-15.511 -8.681 -6.883
-10.493 -11.188 0.695
-14.231 -7.510 -6.699
-10.595 -9.441 -1.180
-11.210 -11.097 -0.108
-16.256 -9.183 -7.119
-16.763 -8.756 -8.049
-15.248 -8.607 -6.692
-17.047 -8.716 -8.413
-15.508 -7.757 -7.768
-9.934 -10.279 0.355
-10.020 -10.302 0.291
-15.802 -8.662 -7.192
-7.767 -9.777 2.006
-7.099 -9.858 2.780
-10.328 -12.447 2.129
-16.659 -8.322 -8.367
-15.683 -7.736 -7.963
-10.021 -10.302 0.290
-17.048 -8.716 -8.414
-14.220 -7.507 -6.692
-9.278 -11.594 2.287
-11.210 -11.098 -0.108
-15.803 -8.662 -7.193
-9.841 -12.447 2.616
-15.512 -8.681 -6.884
-8.710 -10.881 2.167
-16.258 -9.183 -7.121
-16.258 -9.182 -7.121
-16.550 -8.169 -8.462
-9.469 -10.864 1.374
-11.186 -11.096 -0.085
-8.702 -10.884 2.176
-13.358 -7.084 -6.356
-13.358 -7.084 -6.356
-17.284 -8.693 -8.673
-10.326 -12.448 2.131
-16.763 -8.756 -8.049
-9.938 -10.282 0.353
-8.303 -10.470 2.176
-8.706 -10.883 2.172
-13.927 -8.562 -5.406
-10.489 -11.188 0.699
-13.116 -12.486 -0.646
-9.936 -10.281 0.354
-8.458 -11.614 3.135
-9.910 -10.275 0.375
-11.190 -11.096 -0.090
-15.512 -8.681 -6.884
-15.747 -8.094 -7.738
-9.305 -10.857 1.507
-10.491 -11.189 0.697
-15.512 -8.681 -6.884
-10.493 -11.188 0.695
-10.639 -11.200 0.561
-16.256 -9.183 -7.118
-15.249 -8.607 -6.692
-15.683 -7.736 -7.963
-8.715 -10.879 2.158
-10.342 -11.279 0.902
-10.020 -10.302 0.291
-7.773 -9.774 1.998
-9.304 -10.857 1.507
-10.013 -10.307 0.304
-16.259 -9.182 -7.123
-13.359 -7.084 -6.357
-10.017 -10.298 0.291
-16.763 -8.756 -8.049
-17.048 -8.716 -8.414
-14.223 -7.508 -6.694
-8.901 -10.876 1.973
-10.009 -10.299 0.298
-10.357 -12.442 2.094
-10.357 -12.445 2.097
-8.386 -9.528 1.149
-15.511 -8.681 -6.884
-15.511 -8.682 -6.883
-9.933 -10.279 0.355
-10.552 -9.439 -1.132
-16.763 -8.756 -8.049
-16.763 -8.756 -8.049
-16.259 -9.182 -7.122
-16.763 -8.756 -8.049
-10.618 -9.436 -1.217
-17.048 -8.716 -8.414
-11.206 -11.097 -0.104
-17.048 -8.716 -8.414
-10.327 -12.449 2.131
-16.968 -8.739 -8.270
-10.475 -9.456 -1.034
-17.048 -8.716 -8.414
-10.012 -10.308 0.305
-14.218 -7.459 -6.737
-13.359 -7.084 -6.357
-16.427 -8.191 -8.317
-11.128 -11.110 -0.013
-10.445 -11.189 0.743
-9.979 -10.315 0.346
-17.073 -8.681 -8.476
-10.446 -11.189 0.741
-16.203 -9.193 -7.055
-15.201 -8.618 -6.633
-9.886 -10.290 0.414
-7.760 -9.777 2.014
-17.018 -8.724 -8.374
-16.441 -8.188 -8.334
-15.710 -8.102 -7.692
-8.770 -8.535 -0.229
-8.294 -10.470 2.185
-15.491 -7.764 -7.743
-9.925 -10.282 0.367
-16.465 -8.184 -8.362
-15.492 -8.687 -6.859
-15.492 -8.687 -6.859
-14.204 -7.514 -6.668
-13.337 -7.089 -6.329
-15.491 -7.764 -7.743
-9.925 -10.282 0.367
-11.277 -11.110 -0.161
-10.481 -11.187 0.705
-8.880 -10.871 1.990
-10.043 -10.276 0.243
-9.256 -10.865 1.565
-10.533 -9.431 -1.130
-15.505 -7.759 -7.762
-9.933 -10.278 0.355
-10.609 -9.436 -1.199
-16.755 -8.757 -8.040
-13.117 -12.486 -0.647
-9.139 -10.861 1.687
-15.001 -8.757 -6.287
-11.210 -11.097 -0.109
-7.756 -9.756 1.998
-16.765 -8.756 -8.051
-10.498 -11.189 0.690
-15.512 -8.681 -6.885
-11.210 -11.097 -0.109
-16.258 -9.183 -7.121
-8.304 -10.468 2.174
-10.492 -11.189 0.697
-15.950 -8.484 -7.488
-13.359 -7.083 -6.357
-10.337 -11.284 0.916
-15.683 -7.735 -7.963
-14.019 -8.570 -5.490
-10.328 -11.284 0.921
-16.493 -8.179 -8.395
-11.201 -11.122 -0.073
-8.279 -11.202 2.887
-8.070 -9.456 1.393
-10.632 -9.433 -1.234
-15.511 -7.757 -7.770
-10.344 -11.279 0.899
-10.501 -11.187 0.685
-10.501 -11.187 0.685
-8.714 -10.879 2.159
-16.257 -9.182 -7.121
-5.807 -8.299 2.494
-9.138 -10.862 1.687
-5.620 -8.147 2.531
-10.632 -9.433 -1.234
-17.048 -8.716 -8.414
-8.388 -9.527 1.146
-8.890 -10.883 1.990
-16.493 -8.179 -8.395
-16.260 -9.182 -7.123
-6.854 -9.232 2.381
-14.228 -7.509 -6.698
-16.659 -8.322 -8.367
-16.969 -8.739 -8.271
-11.246 -11.096 -0.145
-15.510 -7.757 -7.769
-11.213 -11.096 -0.112
-17.116 -8.669 -8.531
-10.319 -11.281 0.926
-9.241 -11.303 2.061
-11.208 -11.097 -0.107
-15.512 -8.681 -6.885
-7.974 -10.425 2.462
-11.210 -11.097 -0.109
-8.767 -8.841 0.039
-9.246 -11.300 2.055
-10.627 -9.451 -1.205
-11.210 -11.097 -0.108
-16.765 -8.756 -8.051
-16.493 -8.179 -8.396
-10.022 -10.302 0.289
-8.071 -9.457 1.393
-10.492 -11.189 0.697
-7.969 -10.428 2.471
-8.666 -8.993 0.299
-8.388 -9.527 1.146
-9.980 -10.300 0.329
-17.048 -8.716 -8.414
-14.231 -7.510 -6.700
-9.934 -10.269 0.345
-16.263 -9.167 -7.136
-17.048 -8.716 -8.414
-7.755 -9.757 2.000
-8.548 -9.144 0.609
-15.511 -8.681 -6.884
-10.493 -11.188 0.694
-11.209 -11.097 -0.108
-8.307 -10.466 2.168
-10.611 -9.437 -1.201
-9.985 -10.294 0.318
-16.764 -8.756 -8.050
-15.511 -8.681 -6.884
-12.632 -11.253 -1.382
-10.496 -11.187 0.691
-8.186 -9.427 1.248
-8.551 -9.144 0.607
-8.551 -9.144 0.606
-13.116 -12.486 -0.646
-10.325 -11.278 0.916
-8.550 -9.145 0.608
-7.103 -10.341 3.245
-16.258 -9.182 -7.121
-17.048 -8.716 -8.414
-8.186 -9.428 1.249
-7.756 -9.757 1.999
-16.764 -8.756 -8.049
-8.621 -8.969 0.321
-16.764 -8.756 -8.049
-10.497 -11.189 0.691
-8.873 -10.914 2.032
-16.258 -9.183 -7.121
-16.660 -8.322 -8.368
-9.139 -10.862 1.687
-10.339 -12.447 2.117
-15.803 -8.661 -7.194
-10.020 -10.301 0.290
-9.977 -9.855 -0.122
-10.328 -12.447 2.129
-15.512 -8.681 -6.884
-9.310 -10.856 1.500
-10.494 -11.188 0.694
-8.749 -9.231 0.474
-9.310 -10.856 1.500
-15.804 -8.661 -7.194
-10.611 -9.437 -1.200
-13.118 -12.486 -0.647
-8.713 -10.881 2.163
-8.791 -10.187 1.374
-11.211 -11.096 -0.110
-7.107 -10.294 3.196
-10.611 -9.437 -1.201
-11.211 -11.096 -0.110
-10.142 -10.298 0.166
-15.803 -8.661 -7.193
-9.553 -11.597 1.953
-10.173 -12.277 2.046
-10.493 -11.188 0.694
-7.063 -9.985 2.949
-10.339 -11.282 0.907
-10.495 -11.188 0.693
-8.838 -10.915 2.087
-8.307 -10.466 2.168
-10.317 -11.276 0.923
-10.020 -10.300 0.289
-10.328 -12.447 2.128
-16.259 -9.182 -7.123
-12.633 -11.252 -1.384
-8.311 -10.464 2.163
-10.496 -11.187 0.691
-7.758 -9.756 1.996
-10.611 -9.437 -1.200
-8.360 -9.536 1.182
-9.936 -10.278 0.352
-8.811 -8.870 0.025
-8.186 -9.424 1.246
-10.331 -12.446 2.124
-15.511 -8.681 -6.884
-17.048 -8.716 -8.413
-16.491 -8.179 -8.393
-16.763 -8.756 -8.049
-9.307 -10.854 1.502
-16.259 -9.182 -7.123
-10.623 -9.451 -1.200
-8.810 -8.869 0.026
-16.763 -8.756 -8.049
-10.613 -11.202 0.588
-14.001 -7.810 -6.175
-9.935 -10.279 0.354
-16.072 -8.835 -7.254
-8.388 -9.527 1.145
-10.494 -11.189 0.694
-10.169 -12.274 2.048
-9.911 -10.276 0.374
-8.708 -10.884 2.171
-10.327 -11.279 0.915
-16.763 -8.756 -8.048
-10.330 -11.278 0.911
-11.189 -11.095 -0.090
-8.311 -10.465 2.164
-10.330 -11.278 0.911
-8.389 -9.527 1.145
-10.017 -10.310 0.302
-11.207 -11.096 -0.106
-16.255 -9.183 -7.118
-16.763 -8.756 -8.048
-10.463 -11.185 0.722
-14.019 -8.570 -5.490
-10.306 -11.283 0.940
-8.024 -9.470 1.453
-10.328 -11.284 0.921
-9.931 -10.275 0.353
-9.837 -12.446 2.618
-10.052 -10.270 0.228
-15.249 -8.606 -6.693
-16.763 -8.756 -8.049
-8.808 -8.507 -0.294
-7.105 -10.294 3.197
-10.642 -11.201 0.558
-15.511 -8.681 -6.883
-9.995 -11.021 1.009
-10.459 -11.185 0.724
-10.671 -9.444 -1.254
-8.186 -9.426 1.247
-16.256 -9.183 -7.119
-8.198 -11.236 2.999
-8.842 -10.925 2.093
-5.607 -8.143 2.534
-8.704 -10.883 2.174
-11.188 -11.096 -0.088
-9.936 -10.279 0.353
-13.927 -8.562 -5.405
-10.488 -11.188 0.699
-8.847 -9.236 0.384
-10.307 -11.283 0.940
-5.624 -8.113 2.494
-16.072 -8.833 -7.255
-16.764 -8.756 -8.049
-9.307 -10.854 1.502
-10.496 -11.189 0.692
-10.331 -12.451 2.130
-5.620 -8.137 2.522
-10.352 -11.279 0.892
-9.939 -10.282 0.353
-16.764 -8.756 -8.049
-8.025 -9.470 1.451
-7.967 -10.415 2.460
-11.137 -11.110 -0.022
-9.196 -11.308 2.112
-10.279 -11.287 0.974
-8.250 -11.155 2.870
-16.447 -8.186 -8.342
-9.820 -12.453 2.643
-16.726 -8.765 -8.002
-10.465 -11.191 0.725
-10.317 -11.283 0.931
-7.099 -10.292 3.201
-8.708 -10.718 1.980
-16.229 -9.188 -7.086
-9.894 -10.294 0.409
-10.113 -12.280 2.111
-10.305 -11.286 0.946
-10.013 -10.288 0.284
-5.611 -8.141 2.533
-10.485 -9.480 -1.030
-8.006 -9.473 1.472
-8.657 -8.787 0.072
-10.531 -9.456 -1.107
-7.962 -10.430 2.480
-9.922 -10.282 0.369
-11.159 -11.107 -0.048
-8.186 -9.425 1.247
-8.668 -8.941 0.242
-5.620 -8.166 2.550
-11.159 -11.107 -0.047
-9.914 -10.288 0.383
-8.186 -9.425 1.246
-12.629 -11.254 -1.377
-9.085 -11.024 1.901
-10.491 -11.188 0.696
-9.255 -10.868 1.567
-10.482 -9.472 -1.035
-16.756 -8.759 -8.038
-8.579 -8.852 0.223
-8.025 -9.470 1.452
-9.931 -10.288 0.366
-10.599 -9.435 -1.189
-9.978 -9.899 -0.082
-8.388 -9.527 1.145
-7.394 -9.197 1.786
-8.586 -9.214 0.618
-10.330 -11.278 0.911
-17.284 -8.693 -8.674
-10.339 -11.282 0.908
-10.492 -11.189 0.696
-10.632 -9.433 -1.234
-8.589 -11.126 2.507
-8.736 -8.750 -0.050
-10.031 -9.892 -0.142
-5.621 -8.143 2.527
-9.295 -10.855 1.515
-10.170 -12.276 2.049
-9.138 -10.862 1.687
-8.838 -10.908 2.080
-10.623 -11.201 0.577
-9.980 -10.299 0.328
-8.739 -8.865 0.090
-8.773 -10.706 1.902
-8.754 -8.830 0.039
-16.222 -9.132 -7.170
-9.909 -10.274 0.374
-16.764 -8.756 -8.049
-10.331 -12.451 2.130
-9.845 -12.450 2.616
-8.588 -9.214 0.616
-7.971 -10.429 2.470
-9.912 -10.277 0.374
-10.058 -10.276 0.227
-10.331 -11.278 0.910
-10.600 -9.435 -1.191
-10.600 -9.435 -1.191
-9.307 -10.854 1.502
-10.058 -10.276 0.228
-5.620 -8.149 2.533
-7.964 -10.432 2.479
-10.169 -12.274 2.047
-10.352 -11.279 0.891
-5.616 -8.160 2.548
-7.945 -9.643 1.697
-10.331 -11.278 0.910
-8.693 -8.833 0.102
-10.018 -10.310 0.302
-7.964 -10.432 2.480
-7.763 -9.781 2.015
-8.388 -9.527 1.146
-5.251 -8.473 3.218
-9.939 -10.282 0.353
-7.815 -9.465 1.625
-9.037 -11.203 2.192
-9.223 -11.681 2.426
-7.065 -7.553 0.515
-6.586 -8.283 1.703
-6.691 -9.450 2.736
-6.023 -8.063 2.045
-9.233 -11.680 2.415
-8.937 -11.060 2.149
-8.807 -11.032 2.254
-5.651 -8.797 3.143
-5.723 -8.808 3.082
-5.723 -8.810 3.084
-6.564 -9.330 2.763
-8.807 -11.032 2.254
-5.721 -8.809 3.085
-5.920 -8.823 2.913
-5.723 -8.807 3.082
-7.589 -10.236 2.653
-6.250 -8.833 2.594
-6.023 -8.064 2.046
-5.723 -8.805 3.080
-5.886 -8.340 2.452
-8.843 -11.027 2.212
-8.769 -10.988 2.247
-6.023 -8.065 2.047
-7.063 -7.556 0.520
-9.132 -11.527 2.360
-6.250 -8.833 2.595
-6.024 -8.064 2.045
-6.856 -8.711 1.873
-5.724 -8.808 3.082
-8.809 -11.028 2.247
-6.565 -9.330 2.763
-8.957 -11.050 2.120
-5.608 -8.606 2.992
-6.023 -8.064 2.046
-5.674 -8.863 3.194
-5.724 -8.806 3.079
-5.651 -8.798 3.143
-5.716 -7.773 2.075
-9.131 -11.527 2.360
-8.991 -11.046 2.082
-5.581 -8.808 3.219
-9.132 -11.527 2.359
-6.618 -7.574 0.931
-5.724 -8.807 3.081
-6.711 -9.331 2.618
-5.651 -8.797 3.142
-7.245 -8.459 1.229
-5.434 -7.544 2.128
-6.024 -8.066 2.047
-8.772 -11.037 2.293
-7.064 -7.555 0.519
-5.651 -8.798 3.143
-5.872 -8.812 2.937
-5.872 -8.878 3.014
-7.801 -9.468 1.642
-6.967 -9.329 2.363
-6.249 -8.834 2.596
-6.967 -9.329 2.363
-8.809 -11.027 2.247
-6.234 -8.699 2.469
-6.012 -8.536 2.537
-6.848 -8.708 1.873
-6.033 -8.241 2.204
-6.004 -7.890 1.880
-5.722 -8.807 3.082
-7.663 -9.450 1.766
-5.716 -7.773 2.076
-8.842 -11.023 2.209
-6.023 -8.062 2.043
-6.232 -8.485 2.247
-7.801 -9.467 1.641
-6.965 -9.329 2.365
-5.471 -7.386 1.933
-6.004 -7.890 1.880
-6.004 -7.890 1.880
-6.105 -8.543 2.434
-5.717 -7.773 2.075
-5.722 -8.806 3.081
-9.089 -11.878 2.786
-6.676 -9.446 2.748
-5.675 -8.861 3.191
-6.249 -8.833 2.595
-6.977 -7.519 0.569
-4.155 -7.737 3.589
-5.897 -8.626 2.728
-4.155 -7.737 3.589
-6.567 -8.280 1.720
-7.803 -9.467 1.639
-5.473 -7.386 1.930
-9.049 -11.200 2.177
-8.807 -11.032 2.253
-7.801 -9.467 1.641
-7.801 -9.467 1.641
-5.713 -7.732 2.037
-6.563 -9.330 2.765
-7.957 -9.737 1.801
-7.063 -7.556 0.520
-8.770 -11.041 2.299
-6.977 -7.523 0.573
-5.720 -8.808 3.086
-5.649 -8.798 3.145
-5.822 -8.569 2.757
-6.074 -8.602 2.531
-5.914 -8.864 2.961
-8.955 -11.052 2.124
-6.074 -8.605 2.535
-6.064 -8.502 2.443
-6.526 -9.349 2.822
-5.470 -7.385 1.932
-5.719 -8.809 3.087
-8.869 -11.182 2.341
-9.039 -11.215 2.201
-7.798 -9.467 1.644
-8.807 -11.032 2.253
-4.155 -7.739 3.591
-7.663 -9.450 1.766
-5.721 -8.808 3.085
-7.800 -9.467 1.642
-6.073 -8.600 2.531
-5.721 -8.808 3.084
-7.724 -9.451 1.701
-6.248 -8.834 2.598
-8.770 -11.041 2.299
-7.063 -7.547 0.512
-5.713 -7.731 2.035
-6.565 -8.281 1.723
-9.233 -11.680 2.415
-7.742 -9.415 1.675
-6.033 -8.242 2.205
-5.264 -8.344 3.080
-7.665 -9.450 1.765
-5.966 -7.880 1.908
-6.965 -9.329 2.366
-8.841 -11.027 2.214
-6.617 -7.574 0.932
-6.617 -7.574 0.932
-9.164 -11.725 2.526
-7.915 -9.489 1.552
-8.807 -11.030 2.251
-6.966 -9.329 2.364
-5.220 -7.305 2.103
-6.977 -7.521 0.571
-6.966 -9.329 2.364
-4.155 -7.735 3.587
-5.650 -8.799 3.144
-7.916 -9.475 1.562
-5.258 -8.365 3.109
-10.323 -12.127 1.813
-5.381 -8.302 2.926
-6.103 -8.520 2.412
-5.649 -8.799 3.145
-6.617 -7.574 0.932
-7.801 -9.467 1.641
-6.606 -8.280 1.681
-6.282 -8.927 2.647
-5.445 -7.546 2.120
-5.861 -8.887 3.033
-6.281 -8.633 2.357
-5.538 -8.618 3.076
-6.214 -8.572 2.355
-5.453 -7.546 2.111
-6.971 -9.329 2.359
-6.054 -8.069 2.020
-6.035 -8.240 2.201
-6.980 -7.521 0.569
-5.910 -8.868 2.968
-7.122 -9.435 2.332
-5.566 -7.669 2.119
-8.827 -10.999 2.201
-6.270 -8.928 2.660
-6.970 -9.329 2.360
-5.628 -8.610 2.976
-6.980 -7.524 0.571
-5.902 -8.627 2.724
-8.827 -10.998 2.201
-5.450 -7.546 2.114
-7.021 -7.536 0.543
-5.440 -7.545 2.124
-5.746 -8.807 3.058
-7.820 -9.466 1.622
-5.715 -7.774 2.077
-6.969 -9.329 2.361
-6.718 -9.330 2.611
-6.077 -8.538 2.465
-6.577 -8.279 1.709
-5.692 -8.793 3.112
-6.761 -9.474 2.695
-9.213 -11.797 2.550
-6.577 -8.280 1.710
-6.536 -9.349 2.812
-6.232 -8.831 2.610
-5.681 -8.860 3.184
-4.158 -7.736 3.585
-6.714 -9.330 2.614
-6.392 -8.690 2.300
-6.968 -9.329 2.361
-8.826 -10.999 2.201
-6.715 -9.330 2.614
-5.236 -7.316 2.097
-6.008 -8.916 2.917
-7.022 -9.466 2.421
-7.819 -9.466 1.623
-7.023 -9.466 2.421
-5.481 -7.392 1.929
-6.968 -9.329 2.361
-5.902 -8.628 2.724
-8.789 -11.008 2.247
-4.130 -7.741 3.618
-5.238 -7.316 2.096
-6.257 -8.833 2.588
-8.860 -10.994 2.162
-6.629 -7.586 0.933
-6.255 -8.833 2.589
-5.744 -8.809 3.061
-9.176 -11.798 2.588
-6.086 -8.587 2.506
-5.573 -8.620 3.042
-5.772 -8.462 2.698
-5.479 -7.391 1.930
-6.979 -7.521 0.568
-8.826 -10.998 2.201
-7.114 -8.635 1.534
-6.521 -9.075 2.565
-6.255 -8.833 2.589
-6.979 -7.520 0.568
-6.714 -9.330 2.615
-6.035 -7.894 1.853
-5.984 -7.091 1.115
-7.816 -9.467 1.627
-5.743 -8.811 3.065
-8.860 -10.988 2.156
-7.020 -7.537 0.544
-9.234 -11.821 2.553
-5.627 -8.611 2.978
-5.450 -7.546 2.114
-9.121 -11.728 2.625
-5.999 -7.885 1.879
-9.341 -11.896 2.569
-6.543 -8.344 1.808
-5.897 -8.275 2.374
-7.022 -9.466 2.422
-6.025 -8.068 2.047
-7.818 -9.466 1.624
-6.597 -8.281 1.690
-5.744 -8.811 3.064
-7.640 -9.442 1.781
-5.977 -7.880 1.897
-9.018 -11.002 2.011
-6.980 -7.519 0.566
-6.023 -8.543 2.535
-9.247 -11.787 2.506
-6.670 -9.454 2.765
-6.608 -9.440 2.810
-6.554 -8.344 1.798
-5.901 -8.627 2.725
-6.393 -8.687 2.297
-5.817 -7.722 1.924
-6.256 -8.833 2.588
-5.673 -8.801 3.123
-5.629 -8.610 2.976
-6.127 -8.550 2.420
-5.484 -7.525 2.053
-6.714 -9.330 2.614
-7.816 -9.467 1.627
-6.267 -8.930 2.665
-5.764 -7.778 2.032
-8.964 -11.016 2.078
-9.017 -11.002 2.012
-5.743 -8.811 3.065
-7.667 -9.450 1.763
-7.818 -9.466 1.624
-6.026 -8.068 2.048
-5.754 -8.643 2.890
-8.871 -10.985 2.142
-5.477 -7.391 1.931
-9.211 -11.790 2.545
-9.293 -11.786 2.460
-7.969 -9.507 1.557
-6.967 -9.329 2.363
-6.980 -7.520 0.567
-8.871 -10.982 2.139
-9.134 -11.143 2.034
-6.967 -9.329 2.362
-9.233 -11.820 2.552
-8.872 -10.982 2.139
-6.571 -9.329 2.756
-6.980 -7.520 0.568
-6.077 -8.499 2.427
-5.897 -8.275 2.374
-6.268 -8.923 2.659
-6.555 -8.344 1.796
-7.876 -9.485 1.594
-5.999 -7.884 1.879
-7.432 -9.969 2.564
-5.536 -8.625 3.083
-6.968 -9.328 2.361
-7.981 -9.727 1.767
-5.717 -7.733 2.033
-7.877 -9.484 1.592
-7.395 -8.730 1.306
-8.871 -10.982 2.139
-6.598 -8.281 1.690
-6.077 -8.795 2.730
-9.018 -11.002 2.011
-9.134 -11.143 2.034
-6.037 -8.070 2.038
-6.712 -9.330 2.616
-6.255 -8.833 2.589
-6.600 -9.070 2.481
-7.975 -9.733 1.778
-6.171 -8.846 2.685
-9.689 -11.951 2.263
-6.009 -8.916 2.916
-6.485 -8.714 2.237
-5.830 -8.569 2.749
-6.025 -8.079 2.059
-9.125 -11.127 2.027
-5.745 -8.810 3.062
-6.669 -9.454 2.764
-6.257 -8.833 2.588
-6.037 -8.072 2.040
-7.531 -7.973 0.455
-7.161 -9.354 2.195
-5.889 -8.818 2.926
-7.815 -9.467 1.628
-7.929 -9.489 1.539
-9.352 -11.914 2.576
-6.022 -8.025 2.007
-5.754 -8.646 2.893
-5.819 -7.720 1.919
-6.213 -8.572 2.358
-8.801 -11.000 2.227
-6.980 -7.619 0.664
-4.795 -7.562 2.766
-7.817 -9.466 1.625
-6.053 -8.070 2.021
-8.966 -11.001 2.062
-8.838 -10.990 2.181
-6.255 -8.833 2.589
-6.561 -8.341 1.788
-8.838 -10.990 2.181
-5.820 -7.720 1.919
-6.255 -8.833 2.589
-9.292 -11.787 2.461
-6.573 -8.481 1.905
-5.551 -6.537 1.000
-8.031 -9.539 1.527
-5.631 -8.688 3.055
-6.017 -8.541 2.538
-5.604 -7.670 2.082
-6.575 -8.280 1.711
-7.761 -9.406 1.647
-5.714 -7.774 2.078
-6.213 -8.574 2.358
-7.819 -9.466 1.623
-7.819 -9.466 1.623
-7.819 -9.466 1.623
-5.714 -7.774 2.078
-6.212 -8.583 2.366
-6.714 -9.330 2.614
-6.084 -8.581 2.502
-8.871 -10.982 2.139
-7.264 -8.459 1.210
-7.816 -9.467 1.627
-7.021 -7.535 0.542
-7.763 -9.404 1.642
-6.083 -8.599 2.520
-5.873 -8.873 3.007
-6.303 -8.923 2.623
-7.021 -7.535 0.541
-6.256 -8.833 2.589
-6.714 -9.330 2.615
-6.053 -8.069 2.021
-7.816 -9.467 1.627
-6.053 -8.072 2.024
-5.716 -7.773 2.075
-7.531 -7.970 0.452
-4.158 -7.736 3.585
-5.716 -7.773 2.075
-7.450 -8.698 1.216
-6.980 -7.521 0.568
-6.392 -8.688 2.299
-6.266 -8.928 2.665
-6.023 -8.538 2.528
-7.395 -8.695 1.268
-7.424 -8.697 1.241
-6.053 -8.071 2.022
-5.201 -7.921 2.723
-6.712 -9.330 2.616
-5.914 -7.608 1.712
-7.929 -9.489 1.539
-5.565 -7.670 2.121
-6.488 -8.719 2.239
-9.210 -11.792 2.548
-7.816 -9.467 1.627
-8.032 -9.537 1.524
-5.742 -8.810 3.065
-6.391 -8.688 2.299
-6.462 -8.784 2.325
-6.037 -8.063 2.031
-6.378 -8.573 2.208
-6.358 -8.576 2.220
-6.628 -8.285 1.663
-9.126 -11.157 2.056
-6.023 -8.538 2.528
-5.389 -7.748 2.377
-6.716 -9.330 2.613
-7.820 -9.491 1.654
-6.716 -9.330 2.613
-9.125 -11.133 2.032
-5.830 -8.570 2.750
-5.746 -8.810 3.061
-7.737 -9.415 1.679
-5.359 -7.748 2.407
-5.450 -7.545 2.114
-5.499 -7.388 1.906
-6.018 -8.532 2.525
-9.130 -11.527 2.363
-6.010 -8.533 2.536
-7.162 -9.354 2.195
-7.529 -7.964 0.447
-5.861 -7.609 1.766
-6.008 -8.539 2.544
-6.891 -8.973 2.083
-6.690 -9.450 2.738
-5.715 -7.773 2.076
-6.616 -8.284 1.675
-5.443 -7.546 2.121
-7.802 -9.467 1.640
-6.260 -8.937 2.679
-6.058 -8.984 2.938
-5.605 -8.605 2.995
-6.652 -9.452 2.780
-6.390 -8.687 2.300
-9.228 -11.676 2.415
-6.390 -8.688 2.300
-7.936 -9.724 1.808
-6.394 -8.571 2.190
-9.320 -11.678 2.327
-7.802 -9.467 1.640
-6.293 -8.926 2.635
-5.526 -7.385 1.877
-7.431 -8.697 1.234
-6.388 -8.688 2.303
-6.585 -8.281 1.703
-6.344 -8.572 2.241
-9.229 -11.676 2.415
-5.715 -7.773 2.077
-6.652 -9.452 2.780
-6.959 -7.512 0.581
-6.031 -8.241 2.206
-5.993 -8.062 2.074
-7.852 -9.487 1.620
-8.940 -11.055 2.143
-7.801 -9.467 1.642
-5.812 -7.777 1.983
-6.259 -8.931 2.674
-5.492 -7.387 1.912
-9.114 -11.214 2.125
-9.401 -11.936 2.548
-5.469 -7.389 1.937
-9.090 -11.079 2.014
-8.843 -11.031 2.216
-5.962 -7.878 1.909
-7.718 -9.478 1.744
-9.161 -11.721 2.525
-6.651 -9.452 2.781
-8.939 -11.048 2.135
-7.430 -8.731 1.273
-7.490 -9.979 2.514
-8.991 -11.050 2.086
-5.713 -7.773 2.078
-6.929 -9.455 2.505
-7.811 -9.492 1.663
-6.522 -8.710 2.181
-6.259 -8.931 2.674
-6.390 -8.569 2.192
-9.901 -9.560 -0.357
-4.915 -6.134 1.231
-9.061 -9.163 0.048
-10.488 -9.473 -1.051
-9.906 -9.542 -0.388
-8.701 -8.559 -0.136
-8.657 -10.647 1.985
-10.446 -9.480 -1.002
-9.291 -9.441 0.130
-9.932 -9.554 -0.394
-4.571 -7.634 3.070
-11.432 -11.102 -0.325
-9.941 -9.553 -0.404
-10.057 -9.502 -0.585
-10.447 -9.480 -1.003
-8.219 -10.539 2.311
-10.513 -9.431 -1.109
-10.446 -9.465 -0.998
-10.057 -9.502 -0.584
-7.991 -10.750 2.716
-4.369 -7.347 2.983
-10.532 -9.460 -1.107
-8.583 -10.637 2.050
-10.210 -9.547 -0.698
-10.384 -9.472 -0.940
-8.657 -10.647 1.985
-8.541 -11.038 2.466
-10.051 -9.503 -0.577
-5.567 -7.065 1.506
-6.756 -9.162 2.411
-8.583 -10.637 2.049
-5.464 -7.035 1.579
-10.489 -9.473 -1.051
-4.133 -6.548 2.422
-10.523 -9.430 -1.121
-5.463 -7.034 1.580
-10.523 -9.430 -1.121
-8.709 -10.807 2.076
-8.650 -8.543 -0.106
-10.448 -9.465 -1.000
-4.728 -7.085 2.365
-9.766 -9.371 -0.413
-8.655 -10.646 1.986
-10.055 -9.502 -0.583
-10.331 -9.517 -0.850
-8.678 -8.587 -0.083
-6.542 -9.224 2.711
-5.025 -6.816 1.800
-8.877 -10.467 1.540
-10.056 -9.503 -0.583
-11.275 -11.134 -0.142
-6.758 -9.164 2.411
-10.247 -9.729 -0.543
-4.593 -7.177 2.597
-10.630 -9.430 -1.235
-10.277 -9.501 -0.805
-8.781 -10.200 1.397
-10.277 -9.501 -0.804
-8.551 -9.139 0.602
-4.814 -6.611 1.795
-10.359 -9.486 -0.890
-9.945 -10.299 0.362
-10.277 -9.501 -0.804
-4.719 -7.090 2.379
-10.057 -9.502 -0.586
-10.448 -9.465 -1.000
-6.860 -9.242 2.385
-10.804 -11.195 0.390
-9.294 -10.889 1.555
-4.764 -7.110 2.355
-8.581 -8.893 0.267
-7.196 -10.177 2.970
-5.602 -7.063 1.469
-8.869 -10.269 1.377
-5.602 -7.063 1.469
-8.058 -9.174 1.077
-10.526 -9.429 -1.124
-8.649 -10.663 2.013
-8.490 -10.565 2.049
-9.282 -10.854 1.528
-8.811 -10.172 1.338
-10.449 -9.465 -1.000
-4.773 -6.578 1.802
-10.450 -9.480 -1.006
-4.985 -6.896 1.917
-4.812 -6.076 1.274
-10.363 -9.486 -0.894
-10.060 -9.502 -0.588
-4.996 -6.814 1.821
-6.885 -10.015 3.039
-4.114 -7.725 3.618
-8.679 -8.587 -0.084
-8.592 -9.020 0.400
-8.552 -9.139 0.601
-10.058 -9.502 -0.585
-9.950 -10.300 0.359
-5.603 -7.062 1.467
-9.794 -9.537 -0.286
-9.910 -9.542 -0.391
-10.632 -9.431 -1.236
-5.564 -7.060 1.504
-6.995 -7.531 0.564
-10.362 -9.486 -0.893
-9.964 -10.300 0.345
-6.996 -7.529 0.560
-8.743 -8.563 -0.174
-4.679 -6.502 1.822
-8.513 -9.100 0.562
-8.744 -8.562 -0.176
-8.812 -8.522 -0.285
-9.283 -10.853 1.526
-8.931 -10.422 1.468
-10.527 -9.448 -1.101
-6.757 -9.163 2.411
-4.818 -6.615 1.795
-4.679 -6.502 1.822
-8.584 -8.885 0.255
-4.818 -6.614 1.795
-8.680 -8.588 -0.084
-6.995 -7.534 0.566
-8.640 -8.620 -0.012
-6.995 -7.530 0.562
-4.767 -6.011 1.254
-8.678 -8.588 -0.082
-9.946 -9.552 -0.409
-5.601 -7.066 1.472
-6.995 -7.531 0.563
-10.617 -9.434 -1.217
-10.432 -9.470 -0.983
-9.944 -9.552 -0.408
-6.992 -9.376 2.384
-4.473 -7.224 2.759
-9.893 -10.322 0.437
-8.501 -8.969 0.427
-10.397 -9.470 -0.955
-6.953 -7.513 0.588
-10.050 -9.504 -0.576
-10.215 -9.547 -0.704
-10.480 -9.461 -1.040
-6.995 -7.531 0.563
-2.655 -3.282 0.631
-8.679 -8.586 -0.085
-4.300 -6.709 2.413
-10.116 -9.899 -0.220
-6.994 -7.529 0.562
-8.686 -9.225 0.532
-10.363 -9.493 -0.891
-10.362 -9.487 -0.892
-4.475 -7.232 2.765
-10.415 -9.513 -0.939
-8.646 -10.641 1.990
-7.604 -9.419 1.819
-8.435 -9.218 0.796
-8.500 -8.978 0.438
-10.513 -9.484 -1.057
-5.602 -7.063 1.469
-4.370 -7.329 2.964
-5.602 -7.063 1.469
-10.621 -9.450 -1.199
-4.817 -6.613 1.795
-10.104 -9.874 -0.234
-7.275 -10.107 2.831
-7.040 -10.023 2.979
-8.518 -9.067 0.523
-11.391 -11.109 -0.276
-9.282 -10.854 1.527
-10.823 -11.194 0.371
-6.757 -9.163 2.411
-6.462 -8.815 2.363
-8.496 -8.972 0.436
-10.401 -9.477 -0.947
-5.491 -7.207 1.725
-5.078 -6.809 1.744
-8.742 -8.577 -0.159
-9.923 -9.851 -0.070
-8.584 -8.850 0.215
-8.679 -8.589 -0.082
-10.543 -9.457 -1.121
-9.942 -9.553 -0.405
-10.440 -9.469 -0.993
-6.221 -8.834 2.625
-8.550 -10.644 2.089
-8.594 -10.636 2.037
-10.441 -9.482 -0.995
-6.951 -7.513 0.589
-10.333 -9.483 -0.879
-11.301 -11.104 -0.189
-10.258 -9.324 -0.993
-10.434 -9.470 -0.985
-10.268 -9.503 -0.793
-8.881 -10.876 1.993
-4.676 -6.503 1.826
-10.282 -9.501 -0.809
-10.362 -9.487 -0.892
-8.594 -10.636 2.037
-9.944 -9.553 -0.407
-8.436 -9.216 0.794
-10.221 -9.545 -0.711
-9.850 -9.556 -0.356
-11.452 -11.098 -0.348
-7.031 -10.195 3.154
-8.512 -9.099 0.563
-4.677 -6.503 1.825
-9.296 -10.889 1.553
-8.262 -8.905 0.656
-8.591 -9.017 0.399
-4.784 -6.229 1.456
-5.608 -7.064 1.464
-8.375 -9.205 0.842
-10.491 -9.459 -1.054
-6.994 -7.528 0.562
-6.591 -7.571 0.956
-9.997 -9.536 -0.477
-7.033 -9.963 2.927
-10.140 -12.184 1.990
-4.479 -7.225 2.754
-8.724 -10.908 2.161
-9.971 -10.289 0.326
-10.373 -9.492 -0.902
-10.345 -9.481 -0.892
-10.623 -9.450 -1.202
-10.283 -11.281 0.961
-9.034 -9.722 0.534
-8.592 -10.636 2.038
-8.724 -10.909 2.162
-6.591 -7.571 0.955
-10.440 -9.470 -0.992
-9.974 -10.318 0.353
-10.592 -9.435 -1.183
-5.446 -7.185 1.748
-9.281 -10.854 1.529
-10.488 -9.460 -1.049
-11.320 -11.101 -0.211
-8.851 -10.264 1.390
-6.611 -7.573 0.938
-10.372 -9.492 -0.902
-5.564 -7.060 1.504
-7.645 -9.643 2.013
-8.238 -9.424 0.897
-4.124 -6.551 2.434
-7.425 -9.106 1.702
-10.629 -9.432 -1.232
-9.283 -10.853 1.526
-10.059 -9.503 -0.586
-6.730 -9.159 2.434
-8.729 -10.908 2.155
-10.596 -9.434 -1.188
-9.944 -9.554 -0.406
-6.666 -7.581 0.891
-8.833 -10.514 1.650
-10.372 -9.492 -0.902
-10.283 -11.281 0.961
-7.056 -7.553 0.525
-4.676 -6.503 1.826
-9.253 -10.902 1.608
-9.974 -10.318 0.353
-9.964 -10.300 0.345
-9.942 -10.311 0.377
-6.522 -8.701 2.172
-8.061 -9.177 1.077
-10.315 -9.510 -0.826
-4.652 -7.000 2.364
-9.275 -10.896 1.580
-11.305 -11.104 -0.192
-9.945 -9.553 -0.407
-7.426 -9.107 1.701
-4.657 -6.500 1.842
-10.444 -9.469 -0.997
-11.438 -11.100 -0.332
-9.322 -10.872 1.511
-10.362 -9.487 -0.892
-9.266 -11.937 2.455
-7.012 -7.535 0.550
-8.492 -8.980 0.448
-4.138 -6.910 2.781
-8.577 -8.995 0.390
-11.304 -11.104 -0.192
-6.993 -7.531 0.566
-8.913 -10.915 2.015
-5.458 -7.034 1.584
-10.479 -9.462 -1.039
-8.774 -10.555 1.750
-10.335 -9.483 -0.880
-8.719 -10.937 2.195
-10.430 -9.464 -0.986
-7.591 -9.391 1.805
-8.517 -9.069 0.526
-8.830 -10.432 1.570
-7.078 -11.012 3.813
-9.941 -10.310 0.377
-4.591 -7.248 2.670
-4.374 -7.346 2.977
-4.775 -7.109 2.343
-11.173 -11.098 -0.071
-8.944 -10.746 1.816
-6.830 -9.835 3.003
-6.685 -9.034 2.356
-10.483 -9.461 -1.044
-8.808 -9.623 0.750
-6.868 -8.744 1.871
-4.220 -6.963 2.755
-7.012 -7.536 0.551
-7.011 -7.536 0.551
-9.941 -9.554 -0.403
-10.439 -9.470 -0.991
-4.676 -6.503 1.826
-9.710 -9.988 0.282
-2.697 -6.533 3.847
-8.593 -10.636 2.038
-10.439 -9.470 -0.991
-6.243 -8.845 2.613
-10.505 -9.485 -1.048
-7.721 -10.299 2.547
-6.264 -10.146 3.883
-10.109 -12.296 2.134
-8.592 -9.015 0.395
-8.741 -8.881 0.105
-8.514 -11.221 2.669
-10.318 -11.290 0.942
-10.442 -9.469 -0.994
-10.598 -9.433 -1.191
-8.068 -9.169 1.062
-9.277 -10.895 1.577
-6.661 -7.858 1.193
-5.602 -7.062 1.469
-11.428 -11.102 -0.318
-4.130 -6.552 2.430
-4.770 -6.580 1.808
-8.686 -9.226 0.533
-9.337 -11.525 2.182
-6.950 -7.515 0.592
-8.624 -8.620 0.005
-7.012 -7.537 0.552
-6.592 -7.571 0.955
-10.279 -9.502 -0.805
-9.800 -9.967 0.172
-10.443 -11.183 0.739
-6.610 -7.573 0.939
-10.441 -9.469 -0.994
-6.562 -10.176 3.632
-6.591 -7.570 0.955
-4.814 -6.615 1.800
-8.004 -10.487 2.495
-4.451 -8.046 3.597
-9.190 -11.732 2.526
-8.648 -10.543 1.898
-10.447 -9.481 -1.002
-10.314 -11.287 0.943
-8.820 -10.573 1.745
-9.276 -10.895 1.579
-6.157 -7.283 1.131
-4.112 -7.726 3.621
-9.319 -10.873 1.514
-8.594 -9.021 0.400
-10.443 -9.469 -0.995
-10.448 -9.481 -1.003
-8.833 -10.507 1.643
-8.874 -10.259 1.363
-4.676 -6.503 1.826
-10.314 -11.287 0.943
-6.705 -7.592 0.867
-10.513 -9.484 -1.058
-6.951 -7.515 0.591
-5.601 -7.062 1.469
-7.419 -9.109 1.709