-11.916 -10.282 -1.664
-12.787 -10.077 -2.723
-11.995 -10.257 -1.771
-8.177 -10.351 2.152
-12.787 -10.077 -2.723
-9.239 -8.829 -0.424
-12.100 -10.243 -1.889
-12.619 -10.056 -2.572
-8.130 -10.352 2.201
-11.463 -10.334 -1.189
-12.001 -10.256 -1.777
-7.800 -9.114 0.942
-8.069 -9.107 0.658
-8.128 -10.357 2.208
-12.079 -10.215 -1.891
-9.338 -9.429 0.053
-12.079 -10.182 -1.926
-12.786 -10.081 -2.718
-12.017 -10.103 -1.927
-10.615 -10.119 -1.529
-7.772 -10.369 2.578
-7.772 -10.369 2.578
-10.479 -10.127 -1.434
-7.291 -8.669 1.020
-9.222 -9.580 0.346
-8.996 -9.482 0.466
-12.251 -10.065 -2.191
-11.939 -10.203 -1.759
-10.611 -10.044 -1.515
-7.301 -8.670 0.891
-10.729 -10.089 -1.736
-10.608 -10.044 -1.512
-11.441 -10.345 -1.136
-8.201 -10.375 2.152
-11.944 -10.200 -1.766
-11.944 -10.201 -1.766
-7.291 -8.670 1.020
-5.875 -9.469 3.539
-13.934 -7.617 -6.269
-8.069 -9.107 0.658
-12.080 -10.214 -1.892
-16.067 -5.334 -11.488
-12.658 -10.091 -2.581
-7.300 -8.671 0.892
-15.260 -5.863 -10.071
-6.889 -8.724 1.544
-8.127 -9.155 0.650
-8.995 -9.482 0.468
-12.092 -10.246 -1.878
-9.627 -9.053 -0.612
-8.070 -9.109 0.658
-10.536 -9.723 -0.954
-12.786 -10.081 -2.718
-5.875 -9.469 3.539
-7.524 -8.732 0.638
-9.284 -9.586 0.293
-12.089 -10.246 -1.875
-11.505 -10.286 -1.267
-12.250 -10.060 -2.195
-7.500 -8.628 1.022
-8.927 -9.339 0.317
-9.296 -9.437 0.105
-8.024 -10.353 2.308
-12.080 -10.214 -1.891
-12.785 -10.081 -2.717
-8.023 -10.354 2.309
-12.785 -10.081 -2.717
-15.107 -5.913 -9.864
-9.314 -8.799 -0.525
-12.095 -10.246 -1.881
-11.949 -10.200 -1.772
-8.203 -10.375 2.150
-6.628 -9.021 2.314
-10.739 -10.107 -1.658
-8.210 -10.375 2.143
-14.132 -7.683 -6.412
-11.959 -10.200 -1.782
-7.492 -8.747 0.808
-16.089 -5.685 -11.081
-11.720 -10.220 -1.521
-6.630 -9.031 2.322
-12.106 -10.245 -1.893
-8.287 -9.072 0.404
-6.631 -9.021 2.311
-6.788 -9.350 2.469
-7.300 -8.668 1.008
-7.549 -8.728 0.607
-11.963 -10.194 -1.791
-12.108 -10.244 -1.896
-11.963 -10.200 -1.786
-7.716 -2.094 -12.162
-7.423 0.274 -15.665
-6.913 -9.079 2.086
-18.380 -9.564 -8.890
-16.073 -5.622 -11.130
-18.488 -4.877 -17.438
-9.280 -8.752 -0.623
-11.507 -10.316 -1.235
-18.487 -4.877 -17.437
-18.487 -4.877 -17.437
-12.678 -10.089 -2.603
-8.087 -9.100 0.632
-7.132 -8.814 1.619
-8.146 -9.149 0.623
-8.188 -10.354 2.144
-10.739 -10.107 -1.658
-6.631 -9.026 2.316
-6.789 -9.350 2.466
-7.320 -8.668 0.867
-8.146 -9.149 0.623
-18.495 -4.977 -17.287
-10.582 -12.226 1.539
-6.581 -8.915 2.265
-7.895 -8.962 0.667
-6.692 -9.997 3.277
-18.491 -4.876 -17.441
-9.341 -8.792 -0.560
-6.942 -7.559 -0.771
-18.726 -5.032 -17.444
-7.541 -8.729 0.616
-8.088 -9.102 0.633
-9.258 -8.774 -0.557
-7.493 -8.747 0.807
-7.633 -2.209 -11.853
-7.774 -2.065 -12.265
-8.990 -8.928 -0.079
-15.795 -5.424 -11.105
-10.629 -10.046 -1.537
-18.132 -4.887 -17.052
-6.322 -2.051 -7.476
-8.000 -10.175 2.127
-16.110 -5.609 -11.181
-7.021 -7.498 -0.926
-6.538 -7.527 -0.435
-12.129 -10.236 -1.927
-12.679 -10.089 -2.604
-8.088 -9.100 0.632
-8.901 -9.506 0.590
-8.033 -10.353 2.298
-15.794 -5.425 -11.104
-9.206 -8.809 -0.402
-6.537 -7.528 -0.433
-7.841 -8.945 0.694
-11.504 -10.330 -1.213
-15.968 -5.445 -11.271
-11.535 -10.305 -1.274
-7.629 -2.211 -11.846
-18.446 -9.533 -8.988
-6.391 -9.325 2.848
-8.033 -10.353 2.298
-6.422 -9.532 2.959
-6.537 -7.528 -0.433
-6.629 -9.004 2.297
-6.537 -7.528 -0.433
-9.237 -8.806 -0.437
-18.715 -4.984 -17.504
-18.446 -9.552 -8.970
-7.494 -8.747 0.805
-6.691 -9.998 3.278
-15.694 -5.617 -10.799
-12.267 -10.063 -2.209
-12.073 -10.025 -2.049
-7.779 -10.369 2.570
-12.679 -10.089 -2.603
-9.269 -8.814 -0.464
-8.034 -10.353 2.298
-11.525 -10.350 -1.216
-7.071 -7.531 -0.945
-11.536 -10.306 -1.273
-11.724 -10.219 -1.526
-17.362 -11.765 -5.872
-6.391 -9.329 2.846
-18.360 -9.558 -8.881
-12.806 -10.078 -2.740
-11.718 -10.221 -1.517
-10.487 -10.128 -1.444
-6.392 -9.324 2.843
-7.513 -8.841 1.102
-6.456 -10.382 3.895
-8.032 -10.353 2.299
-6.586 -9.973 3.357
-6.640 -9.072 2.364
-8.032 -10.353 2.299
-7.308 -8.670 0.882
-18.879 -4.868 -17.856
-7.344 -2.250 -11.499
-7.329 -8.667 0.857
-16.076 -5.624 -11.132
-11.608 -10.268 -1.367
-7.931 -9.924 1.888
-8.088 -9.101 0.631
-8.088 -9.101 0.631
-8.189 -10.354 2.144
-12.068 -10.305 -3.637
-6.586 -8.913 2.259
-8.041 -8.984 0.550
-9.310 -9.618 0.301
-7.327 -8.667 0.859
-11.964 -10.198 -1.789
-6.639 -9.072 2.364
-11.724 -10.220 -1.525
-6.392 -9.318 2.836
-15.694 -5.617 -10.798
-12.602 -11.473 -1.154
-6.173 -9.973 3.770
-6.280 -8.984 2.354
-11.963 -10.201 -1.785
-18.447 -9.548 -8.973
-7.931 -9.924 1.888
-12.073 -10.025 -2.050
-7.683 -10.877 2.888
-7.739 -8.042 0.190
-9.338 -8.778 -0.572
-7.023 -7.498 -0.928
-12.678 -10.089 -2.603
-6.751 -10.260 3.448
-8.032 -10.353 2.299
-9.247 -9.554 0.295
-9.219 -8.853 -0.380
-18.125 -4.888 -17.043
-7.084 -10.544 3.296
-7.531 -8.470 0.928
-6.538 -7.528 -0.434
-8.034 -10.353 2.298
-6.583 -8.913 2.263
-8.138 -10.357 2.198
-6.705 -10.018 3.281
-6.538 -7.528 -0.433
-10.149 -9.976 -0.339
-6.704 -10.018 3.282
-6.691 -9.998 3.278
-7.024 -7.498 -0.929
-6.639 -9.072 2.365
-6.537 -7.528 -0.433
-16.078 -5.624 -11.133
-7.537 -8.493 0.951
-18.362 -9.559 -8.877
-12.110 -10.244 -1.899
-8.752 -9.400 0.553
-13.072 -10.609 -3.047
-17.855 -5.055 -16.534
-11.982 -10.253 -1.753
-7.503 -8.684 1.034
-7.003 -7.500 -0.904
-9.486 -8.570 -1.023
-15.780 -5.389 -11.067
-8.013 -10.720 2.679
-7.062 -7.531 -0.935
-16.082 -5.690 -11.068
-6.686 -9.997 3.282
-7.130 -8.820 1.629
-6.361 -8.997 2.568
-18.318 -9.481 -8.869
-7.347 -8.959 1.303
-8.204 -9.097 0.515
-15.792 -5.505 -11.015
-7.018 -7.497 -0.923
-9.150 -8.874 -0.367
-9.243 -8.827 -0.426
-6.868 -10.132 3.242
-17.344 -11.768 -5.852
-10.448 -9.770 -0.816
-14.783 -7.646 -7.508
-16.084 -5.706 -11.071
-7.502 -8.788 1.080
-7.022 -7.496 -0.928
-6.611 -9.402 2.484
-12.060 -10.026 -2.035
-15.799 -5.502 -11.026
-14.087 -7.550 -6.486
-18.129 -4.891 -17.050
-8.116 -9.013 0.487
-8.028 -10.353 2.304
-9.187 -8.806 -0.383
-9.186 -8.807 -0.382
-6.607 -9.397 2.481
-8.025 -8.989 0.571
-8.585 -10.912 2.307
-18.124 -4.891 -17.044
-6.188 -9.439 3.184
-6.274 -9.269 2.901
-18.343 -9.559 -8.863
-7.506 -8.482 0.947
-8.026 -8.988 0.569
-6.349 -9.995 3.616
-7.499 -8.757 1.068
-8.272 -9.076 0.424
-6.530 -7.528 -0.425
-18.644 -5.048 -17.343
-7.501 -8.645 1.021
-13.991 -7.552 -6.390
-7.774 -9.871 2.056
-7.507 -8.505 0.982
-18.408 -4.893 -17.339
-15.806 -5.496 -11.040
-4.993 -7.163 2.106
-5.654 -9.559 3.853
-4.993 -7.167 2.110
-6.276 -9.258 2.886
-8.182 -10.356 2.152
-7.506 -8.516 0.979
-18.408 -4.893 -17.338
-7.504 -8.590 1.010
-18.373 -4.858 -17.342
-12.720 -11.526 -1.228
-6.387 -9.325 2.847
-4.853 -6.928 2.019
-6.635 -9.071 2.369
-7.509 -8.526 1.004
-9.367 -8.764 -0.698
-10.739 -9.591 -1.474
-15.099 -5.845 -9.928
-6.629 -9.015 2.306
-18.495 -4.977 -17.286
-7.015 -7.497 -0.920
-12.671 -10.089 -2.595
-7.684 -10.872 2.884
-7.018 -7.497 -0.922
-7.018 -7.497 -0.922
-8.492 -8.913 0.033
-5.143 -7.805 2.625
-11.437 -9.244 -2.300
-7.732 -10.841 3.060
-9.266 -8.828 -0.451
-6.106 -9.649 3.496
-15.793 -5.431 -11.098
-8.971 -9.338 0.273
-9.245 -9.576 0.320
-6.685 -9.999 3.285
-9.269 -8.819 -0.462
-6.607 -9.393 2.474
-6.685 -9.999 3.286
-5.616 -9.456 3.803
-9.209 -8.801 -0.410
-6.607 -9.396 2.478
-7.497 -8.787 1.081
-7.560 -10.370 2.790
-6.608 -9.391 2.470
-18.353 -9.333 -9.050
-7.299 -8.675 1.019
-14.098 -7.545 -6.502
-17.977 -4.868 -16.918
-17.977 -4.868 -16.918
-7.018 -7.496 -0.924
-10.608 -10.047 -1.514
-15.294 -5.750 -10.231
-5.934 -10.310 4.318
-6.599 -9.985 3.353
-5.650 -9.560 3.858
-18.446 -9.551 -8.969
-7.017 -7.497 -0.921
-12.671 -10.089 -2.596
-9.198 -8.873 -0.340
-5.649 -9.560 3.858
-5.649 -9.560 3.858
-6.654 -10.409 3.726
-6.001 -10.334 4.278
-7.430 -9.129 1.308
-18.370 -4.858 -17.339
-12.434 -10.616 -3.416
-6.599 -9.985 3.353
-15.968 -5.758 -10.858
-5.448 -9.436 3.954
-10.204 -10.018 -1.110
-6.214 -10.372 4.101
-5.616 -9.455 3.802
-7.300 -8.666 1.006
-8.232 -10.182 1.876
-7.414 -9.795 2.343
-17.876 -9.621 -8.330
-6.650 -9.310 2.575
-5.009 -7.145 2.070
-10.463 -10.509 -0.204
-6.361 -9.005 2.576
-6.361 -9.005 2.576
-6.361 -9.005 2.577
-8.275 -9.075 0.420
-6.532 -7.527 -0.427
-6.362 -9.004 2.575
-8.132 -9.154 0.644
-6.392 -7.526 -0.265
-8.075 -9.109 0.653
-11.516 -10.309 -1.250
-6.126 -9.255 3.025
-9.250 -8.806 -0.448
-8.003 -10.174 2.123
-6.464 -9.678 3.167
-6.212 -10.372 4.104
-6.606 -9.394 2.477
-6.015 -9.621 3.557
-6.359 -8.982 2.559
-8.074 -9.104 0.651
-11.954 -10.199 -1.778
-5.613 -9.455 3.805
-6.887 -2.454 -10.630
-6.101 -9.651 3.503
-7.532 -8.726 0.985
-6.212 -10.373 4.104
-6.106 -9.650 3.496
-15.976 -5.755 -10.870
-5.430 -9.501 4.011
-6.702 -9.096 2.317
-17.809 -9.220 -8.690
-6.362 -9.005 2.576
-8.075 -9.105 0.651
-9.138 -8.805 -0.334
-7.900 -10.919 3.022
-5.652 -9.560 3.856
-18.436 -5.005 -17.187
-6.362 -9.004 2.576
-15.974 -5.756 -10.867
-5.617 -9.455 3.801
-6.018 -9.621 3.553
-9.729 -8.725 -1.116
-6.390 -7.527 -0.262
-9.362 -8.770 -0.687
-9.225 -9.571 0.334
-6.358 -8.967 2.541
-6.125 -9.258 3.022
-7.018 -7.497 -0.923
-18.564 -5.041 -17.257
-12.101 -10.246 -1.888
-9.220 -8.846 -0.389
-7.512 -9.038 1.073
-6.125 -9.263 3.038
-18.718 -4.984 -17.508
-5.930 -10.310 4.323
-7.019 -7.496 -0.925
-15.794 -5.426 -11.102
-15.722 -11.526 -6.156
-6.212 -10.374 4.104
-5.874 -9.468 3.540
-7.497 -8.764 1.074
-4.992 -7.164 2.108
-15.596 -5.527 -10.790
-6.222 -5.816 -0.366
-6.190 -9.512 3.148
-15.973 -5.756 -10.866
-7.245 -8.690 1.101
-5.669 -7.626 1.887
-6.017 -9.622 3.556
-7.332 -9.679 2.262
-18.369 -4.858 -17.338
-7.498 -8.745 1.070
-10.136 -9.675 -0.686
-6.015 -9.620 3.556
-8.027 -10.353 2.305
-6.361 -9.005 2.577
-6.015 -9.622 3.557
-5.601 -9.592 3.938
-9.248 -9.616 0.359
-6.606 -9.393 2.477
-10.136 -9.676 -0.682
-6.390 -7.526 -0.263
-12.516 -10.203 -2.344
-6.220 -5.817 -0.363
-17.362 -11.765 -5.872
-13.154 -10.799 -3.075
-6.758 -7.518 -0.602
-6.113 -10.349 4.178
-18.371 -4.858 -17.341
-6.015 -9.620 3.556
-6.213 -10.371 4.102
-5.649 -9.559 3.858
-18.043 -9.589 -8.531
-5.652 -9.560 3.856
-6.214 -10.372 4.101
-13.472 -10.755 -3.388
-5.630 -9.458 3.790
-4.940 -7.177 2.174
-7.005 -8.838 1.608
-6.088 -9.389 2.959
-6.215 -10.369 4.098
-12.671 -10.089 -2.595
-5.509 -9.482 3.857
-6.391 -7.526 -0.264
-6.017 -9.621 3.555
-6.390 -7.527 -0.262
-9.246 -9.561 0.300
-9.218 -8.848 -0.383
-5.899 -10.313 4.358
-15.753 -5.557 -10.917
-12.199 -10.078 -2.126
-6.375 -7.533 -0.240
-18.184 -9.566 -8.694
-18.439 -9.535 -8.977
-17.965 -4.868 -16.905
-5.980 -10.310 4.270
-7.348 -8.886 1.265
-5.408 -7.559 2.097
-18.561 -5.041 -17.253
-15.968 -5.755 -10.855
-9.140 -8.889 -0.265
-4.808 -7.518 2.657
-13.913 -7.625 -6.240
-18.447 -9.552 -8.970
-6.221 -5.816 -0.365
-6.928 -9.855 2.882
-18.205 -9.600 -8.681
-18.109 -9.572 -8.613
-6.107 -9.649 3.494
-18.721 -4.983 -17.510
-16.076 -5.621 -11.135
-6.394 -7.526 -0.267
-6.304 -9.493 3.013
-5.936 -10.310 4.317
-7.010 -8.822 1.596
-8.005 -10.672 2.641
-6.019 -9.621 3.553
-6.019 -9.621 3.553
-6.019 -9.621 3.553
-6.765 -9.038 2.208
-8.975 -10.828 1.731
-6.430 -9.187 2.682
-7.657 -8.899 1.097
-7.657 -8.907 1.102
-9.592 -9.259 -0.375
-6.271 -9.084 2.748
-5.952 -9.066 3.056
-5.952 -9.076 3.065
-6.772 -9.168 2.335
-8.480 -8.460 -0.004
-8.480 -8.456 -0.008
-8.256 -11.234 2.957
-6.266 -9.083 2.753
-11.390 -12.620 0.866
-6.764 -9.040 2.211
-7.654 -8.902 1.098
-6.004 -9.181 3.124
-6.834 -9.059 2.157
-7.657 -8.899 1.095
-6.771 -9.170 2.338
-6.270 -9.079 2.745
-6.270 -9.084 2.749
-9.118 -9.847 0.680
-6.272 -9.088 2.751
-6.752 -9.035 2.218
-5.952 -9.073 3.063
-7.836 -8.685 0.856
-9.592 -9.259 -0.375
-8.529 -8.622 -0.549
-6.764 -9.041 2.212
-8.005 -9.944 1.901
-6.120 -9.031 2.840
-11.390 -12.620 0.866
-6.788 -9.054 2.226
-8.477 -8.456 -0.006
-6.769 -9.169 2.339
-8.529 -8.622 -0.549
-8.024 -8.676 0.661
-6.135 -7.371 1.190
-6.271 -9.082 2.747
-7.966 -9.867 1.871
-6.120 -9.032 2.841
-6.834 -9.059 2.157
-6.834 -9.059 2.156
-8.053 -9.886 1.802
-6.763 -9.038 2.209
-8.128 -9.181 1.068
-8.934 -9.840 0.856
-9.118 -9.848 0.680
-11.333 -12.599 0.909
-7.797 -8.364 0.580
-6.335 -7.819 1.446
-8.024 -8.676 0.662
-9.592 -9.259 -0.375
-9.118 -9.848 0.681
-9.296 -9.216 -0.124
-9.118 -9.848 0.681
-6.919 -8.773 1.622
-6.763 -9.040 2.211
-8.024 -8.676 0.663
-8.479 -8.457 -0.007
-6.771 -9.168 2.336
-8.987 -11.602 2.449
-11.219 -12.551 0.987
-8.018 -8.678 0.669
-6.764 -9.168 2.343
-6.740 -9.036 2.230
-6.408 -9.185 2.701
-8.215 -11.189 2.957
-9.569 -9.257 -0.354
-6.586 -8.150 1.524
-9.232 -9.869 0.588
-6.731 -9.245 2.452
-6.408 -9.184 2.701
-8.043 -9.864 1.789
-9.098 -9.202 0.058
-8.130 -11.194 3.044
-7.778 -8.890 1.055
-8.476 -8.457 -0.004
-6.408 -9.185 2.701
-8.130 -11.194 3.044
-5.932 -9.047 3.059
-9.569 -9.257 -0.354
-9.388 -9.230 -0.201
-6.810 -9.052 2.174
-9.571 -11.327 1.572
-7.072 -8.286 1.085
-7.826 -8.687 0.868
-7.128 -8.287 1.023
-8.020 -8.678 0.668
-8.215 -11.189 2.957
-8.017 -8.678 0.671
-11.220 -12.551 0.986
-6.740 -9.034 2.229
-6.261 -9.081 2.755
-7.826 -8.686 0.867
-6.261 -9.087 2.761
-11.304 -12.554 0.898
-9.095 -9.848 0.704
-6.263 -9.082 2.754
-7.787 -8.364 0.590
-6.767 -9.167 2.339
-6.729 -9.030 2.236
-6.899 -9.085 2.142
-9.095 -9.848 0.705
-5.985 -9.178 3.143
-7.878 -9.888 1.978
-6.758 -9.247 2.428
-6.133 -7.373 1.192
-9.568 -9.257 -0.354
-8.503 -8.625 -0.520
-7.255 -9.276 1.968
-9.094 -9.849 0.705
-8.383 -11.205 2.812
-6.590 -8.164 1.535
-6.307 -9.256 2.898
-9.128 -10.915 1.646
-8.564 -8.632 -0.562
-8.130 -11.194 3.044
-6.810 -9.055 2.177
-5.983 -9.174 3.141
-7.073 -8.276 1.075
-7.590 -8.934 1.303
-6.739 -9.034 2.230
-9.568 -9.257 -0.353
-6.810 -9.055 2.178
-9.579 -9.258 -0.362
-9.332 -11.278 1.844
-6.573 -7.851 1.241
-8.475 -8.462 0.003
-9.388 -9.231 -0.200
-9.151 -9.862 0.673
-7.217 -9.274 2.005
-8.285 -9.736 1.423
-6.809 -9.052 2.175
-6.581 -7.849 1.231
-6.581 -7.849 1.231
-8.503 -8.625 -0.520
-8.565 -8.632 -0.563
-6.810 -9.052 2.175
-6.408 -9.184 2.701
-6.809 -9.054 2.177
-7.970 -9.873 1.871
-6.729 -9.031 2.237
-8.305 -10.826 2.502
-6.050 -8.986 2.866
-7.023 -7.897 0.843
-7.258 -9.275 1.964
-9.094 -9.849 0.705
-6.766 -9.168 2.342
-8.476 -8.461 -0.000
-6.729 -9.029 2.235
-6.810 -9.054 2.175
-5.738 -7.495 1.685
-6.827 -9.069 2.200
-8.017 -8.681 0.674
-11.307 -12.554 0.895
-6.259 -9.081 2.757
-6.741 -9.036 2.230
-6.898 -8.770 1.634
-8.155 -11.199 3.022
-8.104 -11.193 3.069
-6.918 -8.775 1.621
-9.095 -9.848 0.704
-10.416 -12.123 1.500
-6.988 -8.750 1.690
-6.811 -9.055 2.176
-6.581 -7.848 1.230
-7.195 -8.394 1.156
-6.604 -8.378 1.747
-8.503 -8.625 -0.520
-6.729 -9.027 2.234
-7.787 -8.364 0.590
-6.810 -9.055 2.176
-6.207 -7.774 1.447
-10.227 -9.314 -0.947
-9.582 -9.258 -0.365
-6.582 -7.850 1.231
-8.503 -8.623 -0.519
-6.582 -7.849 1.230
-6.086 -9.016 2.860
-6.919 -8.774 1.619
-8.071 -8.103 0.050
-7.726 -8.909 1.031
-6.856 -9.306 2.375
-9.073 -10.899 1.724
-6.765 -9.167 2.341
-11.323 -12.537 0.868
-5.986 -9.174 3.138
-8.503 -8.625 -0.520
-6.764 -9.247 2.422
-7.970 -9.873 1.871
-5.985 -9.183 3.147
-9.095 -9.848 0.704
-8.021 -8.678 0.666
-7.039 -8.201 1.127
-8.109 -8.501 0.089
-9.389 -9.231 -0.202
-6.811 -9.054 2.175
-8.988 -11.601 2.447
-8.598 -8.323 -0.258
-6.742 -8.689 1.877
-11.222 -12.551 0.984
-8.402 -11.207 2.795
-6.409 -8.474 2.011
-8.238 -9.512 1.253
-6.020 -8.786 2.685
-7.146 -8.392 1.202
-6.139 -9.029 2.819
-6.457 -9.190 2.655
-5.978 -8.639 2.528
-6.943 -7.897 0.922
-7.327 -8.880 1.490
-7.024 -8.241 1.152
-5.939 -8.762 2.733
-7.690 -8.907 1.069
-6.850 -8.657 1.547
-7.042 -8.208 1.131
-6.586 -7.844 1.220
-6.792 -8.874 2.026
-6.023 -8.888 2.788
-6.725 -8.990 2.197
-9.594 -9.259 -0.377
-9.501 -11.617 1.943
-6.320 -9.258 2.886
-8.598 -10.503 1.610
-8.266 -11.222 2.935
-6.838 -9.058 2.152
-6.838 -9.059 2.153
-6.838 -9.059 2.153
-7.109 -8.072 0.845
-9.168 -9.861 0.655
-9.412 -9.233 -0.221
-8.026 -8.675 0.659
-7.163 -8.283 0.985
-7.115 -8.213 0.952
-8.214 -11.216 2.983
-9.358 -9.866 0.470
-5.918 -8.622 2.567
-6.436 -9.194 2.681
-6.968 -9.332 2.329
-6.943 -9.097 2.084
-9.253 -11.681 2.258
-7.041 -8.212 1.108
-8.481 -11.223 2.732
-7.163 -8.292 0.997
-8.051 -8.682 0.595
-9.258 -9.868 0.561
-9.121 -9.848 0.678
-8.215 -11.212 2.979
-9.587 -9.258 -0.370
-9.121 -9.848 0.678
-8.157 -9.877 1.679
-5.595 -8.866 3.190
-7.900 -8.842 0.909
-9.121 -9.848 0.678
-6.920 -8.768 1.614
-8.489 -11.229 2.730
-11.421 -12.601 0.818
-9.412 -9.233 -0.222
-6.135 -7.372 1.190
-10.238 -9.312 -0.959
-6.775 -9.169 2.333
-7.041 -8.209 1.104
-6.122 -9.031 2.839
-6.775 -9.247 2.411
-9.595 -9.258 -0.377
-9.502 -11.617 1.941
-8.529 -8.621 -0.548
-7.042 -8.201 1.123
-9.120 -9.848 0.679
-7.728 -8.910 1.034
-7.038 -7.898 0.829
-8.118 -8.500 0.081
-8.030 -9.878 1.815
-7.163 -8.290 0.993
-7.077 -8.224 1.085
-8.481 -8.454 -0.011
-9.412 -9.233 -0.222
-7.026 -7.896 0.839
-6.589 -7.850 1.224
-6.851 -8.657 1.546
-6.836 -9.058 2.154
-6.588 -7.850 1.225
-6.839 -9.312 2.421
-6.839 -9.315 2.423
-6.942 -7.897 0.923
-6.114 -9.012 2.831
-7.798 -8.362 0.577
-9.411 -9.234 -0.221
-6.836 -9.061 2.156
-9.502 -11.617 1.941
-9.594 -9.885 0.261
-11.421 -12.602 0.819
-9.502 -11.617 1.941
-6.604 -7.850 1.209
-9.589 -9.258 -0.371
-6.134 -7.373 1.192
-8.351 -11.216 2.847
-8.155 -9.878 1.682
-6.868 -8.654 1.525
-7.023 -7.897 0.843
-6.842 -8.410 1.544
-8.154 -9.867 1.675
-9.733 -11.522 1.655
-6.941 -7.897 0.924
-6.436 -8.490 1.999
-7.979 -9.406 1.409
-7.042 -7.896 0.823
-6.836 -9.058 2.154
-8.025 -8.675 0.659
-8.265 -11.222 2.935
-6.837 -9.059 2.154
-7.041 -8.223 1.118
-9.121 -9.848 0.678
-7.262 -9.274 1.959
-6.134 -7.380 1.201
-6.690 -8.657 1.758
-7.690 -7.721 -0.018
-9.769 -9.267 -0.541
-6.553 -7.494 0.799
-9.121 -9.848 0.678
-10.235 -9.315 -0.953
-7.690 -8.905 1.069
-8.688 -8.593 -0.734
-6.601 -8.182 1.544
-9.412 -9.233 -0.222
-8.409 -9.696 1.246
-6.774 -9.170 2.335
-6.604 -8.147 1.502
-7.025 -7.896 0.840
-6.053 -7.334 1.231
-6.914 -9.082 2.124
-6.848 -8.410 1.538
-7.032 -8.161 1.091
-6.836 -9.060 2.156
-8.480 -11.224 2.734
-6.607 -8.537 1.865
-11.439 -12.585 0.791
-8.025 -8.674 0.658
-9.121 -9.848 0.678
-7.420 -10.384 3.010
-6.772 -9.168 2.335
-8.584 -10.500 1.952
-8.529 -8.621 -0.550
-11.439 -12.585 0.790
-6.875 -9.301 2.353
-7.814 -10.387 2.617
-11.421 -12.601 0.818
-7.038 -7.898 0.829
-9.363 -9.865 0.464
-7.049 -8.127 1.005
-6.105 -8.798 2.638
-8.529 -8.621 -0.549
-7.813 -8.526 0.655
-9.411 -9.233 -0.221
-9.120 -9.848 0.679
-6.628 -8.631 1.740
-7.041 -7.897 0.825
-8.085 -10.755 2.694
-6.436 -8.492 2.001
-5.914 -7.268 1.277
-7.042 -8.203 1.125
-7.163 -8.295 1.000
-9.356 -9.865 0.472
-7.284 -8.253 0.834
-8.152 -9.985 1.805
-9.355 -9.866 0.473
-6.770 -9.169 2.338
-8.137 -9.506 1.189
-7.043 -7.896 0.823
-6.629 -8.631 1.740
-7.026 -7.896 0.839
-11.421 -12.601 0.817
-7.637 -8.651 0.892
-6.611 -8.533 1.857
-6.836 -9.059 2.155
-9.147 -11.280 2.122
-6.134 -7.373 1.192
-8.052 -8.682 0.594
-8.233 -9.873 1.600
-8.155 -9.884 1.689
-6.939 -7.898 0.927
-6.755 -9.034 2.214
-8.481 -11.224 2.733
-8.031 -9.870 1.807
-11.421 -12.601 0.817
-7.289 -8.257 0.833
-8.231 -9.929 1.661
-7.162 -8.100 0.822
-9.121 -9.848 0.678
-6.920 -8.752 1.598
-7.787 -9.456 1.609
-9.947 -11.614 1.468
-7.040 -8.212 1.136
-6.898 -8.752 1.616
-7.946 -10.635 2.708
-6.304 -8.457 2.100
-6.141 -7.438 1.256
-6.836 -9.059 2.155
-6.873 -8.654 1.520
-8.474 -11.222 2.738
-9.899 -9.463 -0.537
-11.597 -12.594 0.630
-7.037 -7.897 0.829
-6.598 -8.149 1.510
-6.898 -8.776 1.643
-6.898 -8.772 1.638
-6.835 -8.939 2.045
-8.054 -8.681 0.590
-6.436 -8.494 2.004
-6.919 -8.774 1.618
-8.580 -8.629 -0.580
-6.846 -8.410 1.540
-9.884 -9.281 -0.642
-7.040 -7.897 0.826
-6.846 -8.410 1.540
-6.603 -8.149 1.505
-9.262 -9.853 0.555
-6.771 -9.170 2.338
-9.263 -9.853 0.553
-6.846 -8.410 1.539
-7.033 -8.267 1.174
-11.426 -12.597 0.808
-7.818 -7.741 -0.101
-6.759 -8.695 1.867
-9.653 -11.604 1.767
-8.030 -9.876 1.814
-7.037 -7.897 0.830
-7.840 -8.508 0.633
-9.501 -11.617 1.942
-9.763 -9.268 -0.533
-7.287 -8.256 0.833
-10.690 -9.345 -1.379
-6.899 -8.773 1.636
-7.038 -7.898 0.829
-8.022 -9.889 1.836
-8.232 -9.876 1.604
-7.154 -8.429 1.254
-7.190 -9.345 2.073
-6.540 -8.899 2.297
-7.161 -8.285 0.989
-7.190 -8.114 0.806
-7.873 -8.591 0.680
-7.908 -10.637 2.750
-9.878 -9.282 -0.635
-7.040 -8.198 1.122
-8.599 -10.470 1.896
-6.551 -7.493 0.797
-6.942 -7.897 0.923
-6.583 -7.840 1.221
-6.872 -8.654 1.520
-7.174 -8.443 1.251
-9.701 -11.508 1.606
-6.962 -8.987 1.967
-7.262 -9.276 1.960
-7.040 -8.204 1.128
-7.160 -8.094 0.818
-9.593 -9.259 -0.375
-11.392 -12.620 0.865
-6.839 -8.661 1.772
-8.622 -10.519 1.932
-7.022 -7.897 0.844
-8.057 -8.681 0.588
-9.120 -9.848 0.679
-7.038 -7.898 0.829
-6.603 -9.223 2.547
-8.030 -9.878 1.816
-7.161 -8.100 0.823
-8.225 -9.387 1.158
-8.529 -8.622 -0.549
-9.351 -9.866 0.478
-6.610 -7.849 1.203
-10.877 -11.608 0.533
-6.718 -8.338 1.580
-8.428 -11.248 2.803
-6.903 -8.238 1.286
-6.349 -8.848 2.436
-6.844 -8.656 1.553
-7.290 -8.639 1.227
-6.436 -8.480 1.988
-7.969 -8.366 0.359
-7.040 -8.199 1.123
-7.997 -9.088 1.080
-7.323 -8.367 0.984
-7.062 -8.952 1.858
-7.283 -8.255 0.836
-8.082 -10.750 2.691
-25.535 -8.626 -17.616
-26.918 -7.780 -19.715
-24.149 -8.944 -18.646
-25.431 -6.763 -18.879
-25.431 -6.763 -18.879
-26.439 -7.787 -19.275
-26.194 -8.829 -19.981
-8.623 -10.053 1.398
-24.159 -8.942 -18.660
-24.159 -8.942 -18.660
-25.441 -6.760 -18.892
-24.159 -8.942 -18.660
-25.441 -6.760 -18.892
-24.159 -8.942 -18.660
-24.529 -8.908 -19.054
-26.932 -7.778 -19.728
-24.848 -8.655 -16.915
-22.766 -11.795 -11.254
-25.453 -6.759 -18.906
-26.943 -7.774 -19.757
-25.167 -8.537 -17.370
-25.453 -6.759 -18.906
-15.927 -5.783 -10.796
-26.465 -7.776 -19.306
-14.037 -7.552 -6.436
-24.178 -8.940 -18.681
-25.830 -8.858 -19.607
-26.465 -7.783 -19.301
-25.167 -8.537 -17.370
-24.178 -8.940 -18.681
-24.179 -8.940 -18.681
-25.453 -6.759 -18.906
-25.830 -8.858 -19.607
-26.464 -7.779 -19.319
-24.179 -8.940 -18.681
-24.179 -8.940 -18.681
-26.465 -7.783 -19.303
-25.559 -8.622 -17.645
-26.465 -7.782 -19.302
-17.399 -12.462 -5.021
-24.848 -8.655 -16.915
-26.467 -7.781 -19.304
-18.332 -9.583 -8.831
-25.455 -6.758 -18.908
-22.766 -11.795 -11.254
-22.766 -11.795 -11.254
-24.548 -8.906 -19.076
-24.179 -8.940 -18.681
-22.766 -11.795 -11.254
-24.548 -8.906 -19.076
-25.383 -8.659 -19.130
-24.179 -8.940 -18.681
-24.179 -8.940 -18.681
-25.148 -6.798 -18.561
-15.928 -5.783 -10.796
-8.623 -10.050 1.395
-10.352 -9.744 -0.742
-26.943 -7.777 -19.743
-25.830 -8.858 -19.607
-26.465 -7.781 -19.302
-24.178 -8.940 -18.681
-25.148 -6.798 -18.562
-18.330 -9.573 -8.836
-17.387 -12.461 -5.009
-26.465 -7.785 -19.306
-24.178 -8.940 -18.681
-25.453 -6.759 -18.906
-15.927 -5.783 -10.796
-17.386 -12.461 -5.008
-25.384 -8.659 -19.131
-24.549 -8.906 -19.076
-26.943 -7.776 -19.742
-25.830 -8.858 -19.607
-25.453 -6.759 -18.906
-25.382 -8.659 -19.130
-16.982 -9.630 -7.408
-25.148 -6.798 -18.561
-26.465 -7.783 -19.302
-25.453 -6.759 -18.906
-25.453 -6.759 -18.906
-26.465 -7.782 -19.303
-26.461 -7.842 -19.272
-25.148 -6.798 -18.561
-18.330 -9.573 -8.836
-24.548 -8.906 -19.076
-18.324 -9.576 -8.827
-25.382 -8.657 -19.130
-26.465 -7.782 -19.300
-18.331 -9.580 -8.832
-7.896 -10.930 3.037
-26.499 -7.781 -19.337
-18.342 -9.578 -8.844
-24.205 -8.937 -18.711
-24.205 -8.937 -18.711
-18.335 -9.573 -8.841
-25.636 -9.251 -18.102
-25.859 -8.851 -19.641
-25.192 -8.534 -17.396
-25.859 -8.851 -19.641
-25.859 -8.851 -19.641
-26.499 -7.781 -19.336
-25.859 -8.851 -19.641
-26.241 -8.824 -20.034
-25.859 -8.851 -19.641
-24.872 -8.652 -16.941
-8.928 -9.345 0.325
-26.502 -7.781 -19.341
-16.294 -5.744 -11.224
-15.948 -5.776 -10.825
-26.244 -8.825 -20.038
-12.612 -11.503 -1.139
-15.944 -5.779 -10.817
-24.209 -8.936 -18.715
-7.899 -10.926 3.031
-26.808 -7.760 -19.586
-25.640 -9.251 -18.106
-26.502 -7.781 -19.339
-25.864 -8.851 -19.645
-25.864 -8.851 -19.645
-26.502 -7.781 -19.339
-25.168 -6.794 -18.585
-25.864 -8.851 -19.645
-25.196 -8.533 -17.401
-25.463 -6.755 -18.919
-25.640 -9.251 -18.106
-25.864 -8.852 -19.645
-24.209 -8.936 -18.716
-25.640 -9.251 -18.106
-24.872 -8.652 -16.941
-7.895 -10.929 3.038
-12.604 -11.504 -1.130
-25.864 -8.851 -19.645
-25.168 -6.794 -18.585
-17.408 -12.460 -5.029
-12.612 -11.501 -1.140
-26.245 -8.824 -20.038
-25.864 -8.851 -19.645
-24.209 -8.936 -18.716
-25.588 -8.619 -17.675
-26.501 -7.782 -19.343
-26.502 -7.782 -19.342
-14.180 -7.527 -6.602
-25.168 -6.794 -18.585
-25.864 -8.852 -19.645
-7.904 -10.926 3.025
-14.162 -7.524 -6.586
-24.566 -8.904 -19.098
-25.421 -8.649 -19.172
-25.864 -8.852 -19.645
-25.196 -8.533 -17.401
-25.316 -9.293 -17.722
-10.573 -12.244 1.566
-13.339 -8.997 -4.663
-25.463 -6.755 -18.918
-7.905 -10.922 3.021
-26.501 -7.781 -19.339
-18.343 -9.578 -8.846
-24.566 -8.904 -19.097
-7.898 -10.926 3.031
-22.782 -11.800 -11.262
-26.498 -7.781 -19.332
-7.896 -10.930 3.038
-7.896 -10.930 3.038
-13.909 -9.006 -5.237
-8.426 -10.052 1.594
-24.204 -8.937 -18.711
-25.859 -8.851 -19.640
-9.896 -6.718 -3.458
-25.859 -8.851 -19.640
-24.562 -8.904 -19.093
-18.733 -5.030 -17.456
-12.832 -10.713 -2.819
-17.442 -11.133 -6.512
-7.898 -10.927 3.031
-14.151 -7.524 -6.574
-25.583 -8.619 -17.670
-25.859 -8.851 -19.640
-15.942 -5.779 -10.815
-18.261 -9.587 -8.754
-25.415 -8.648 -19.167
-18.345 -9.574 -8.851
-25.859 -8.851 -19.640
-7.858 -10.755 2.778
-26.498 -7.782 -19.335
-25.191 -8.534 -17.394
-25.165 -6.795 -18.582
-12.609 -11.501 -1.138
-25.858 -8.851 -19.639
-18.736 -5.030 -17.459
-15.941 -5.779 -10.814
-25.858 -8.851 -19.639
-25.165 -6.795 -18.582
-18.327 -9.500 -8.903
-9.993 -6.797 -3.462
-15.940 -5.780 -10.812
-25.858 -8.851 -19.639
-24.204 -8.937 -18.710
-25.858 -8.851 -19.639
-17.362 -11.768 -5.867
-25.191 -8.534 -17.394
-25.339 -8.658 -19.082
-25.776 -8.862 -19.545
-25.776 -8.862 -19.545
-12.560 -11.514 -1.075
-25.776 -8.862 -19.545
-10.330 -9.749 -0.716
-18.305 -9.581 -8.804
-7.995 -10.183 2.141
-7.995 -10.183 2.140
-25.804 -8.855 -19.577
-18.454 -5.064 -17.130
-24.164 -8.940 -18.663
-17.404 -11.773 -5.902
-26.468 -7.787 -19.298
-26.468 -7.786 -19.297
-17.426 -11.772 -5.925
-25.816 -8.853 -19.592
-9.169 -9.576 0.395
-12.568 -11.518 -1.079
-18.383 -5.064 -17.052
-26.468 -7.786 -19.297
-18.320 -9.582 -8.818
-7.992 -10.188 2.147
-9.165 -9.577 0.399
-17.426 -11.772 -5.925
-13.144 -10.773 -3.029
-25.138 -6.800 -18.550
-25.373 -8.650 -19.119
-16.144 -5.729 -11.081
-8.001 -10.181 2.132
-25.374 -8.651 -19.120
-15.930 -5.829 -10.749
-17.292 -12.476 -4.902
-15.914 -5.770 -10.795
-12.603 -11.505 -1.127
-25.568 -8.621 -17.655
-26.486 -7.766 -19.285
-8.423 -10.052 1.597
-10.449 -12.244 1.688
-26.949 -7.776 -19.747
-15.919 -5.767 -10.802
-25.568 -8.621 -17.654
-26.487 -7.781 -19.320
-25.841 -8.849 -19.622
-24.184 -8.939 -18.688
-12.596 -11.506 -1.119
-12.596 -11.506 -1.120
-14.012 -7.549 -6.413
-15.910 -5.771 -10.789
-26.487 -7.783 -19.322
-7.992 -10.188 2.147
-25.841 -8.849 -19.622
-18.287 -5.059 -16.934
-10.277 -12.520 1.916
-25.841 -8.849 -19.622
-24.184 -8.939 -18.688
-25.451 -6.756 -18.906
-22.780 -11.798 -11.263
-18.343 -9.574 -8.849
-13.153 -10.777 -3.052
-18.344 -9.574 -8.849
-14.140 -7.636 -6.466
-25.861 -8.851 -19.643
-25.861 -8.851 -19.643
-25.861 -8.851 -19.643
-25.861 -8.851 -19.643
-14.027 -7.546 -6.430
-9.316 -9.588 0.263
-25.861 -8.851 -19.643
-26.500 -7.781 -19.339
-7.938 -10.180 1.744
-25.422 -8.648 -19.175
-18.346 -9.529 -8.895
-25.417 -8.648 -19.168
-26.500 -7.781 -19.338
-15.929 -5.764 -10.816
-24.204 -8.937 -18.711
-18.468 -5.047 -17.157
-16.136 -5.666 -11.138
-11.443 -9.759 -2.646
-25.861 -8.851 -19.643
-26.500 -7.777 -19.335
-18.474 -5.047 -17.164
-25.861 -8.851 -19.643
-13.151 -10.779 -3.053
-9.196 -9.566 0.358
-7.026 -8.714 1.173
-26.500 -7.780 -19.334
-25.021 -9.019 -16.443
-7.880 -9.701 1.730
-26.365 -7.664 -19.084
-25.584 -8.619 -17.671
-7.979 -10.183 2.158
-12.310 -10.651 -3.249
-25.861 -8.851 -19.642
-26.500 -7.781 -19.337
-25.583 -8.619 -17.671
-26.500 -7.780 -19.336
-15.929 -5.764 -10.816
-9.192 -9.571 0.366
-15.929 -5.764 -10.816
-7.887 -9.698 1.720
-17.370 -11.769 -5.874
-18.517 -9.548 -9.040
-8.425 -10.052 1.594
-15.929 -5.764 -10.816
-25.861 -8.851 -19.642
-12.844 -10.712 -2.828
-7.580 -10.150 2.526
-7.894 -9.691 1.706
-7.894 -9.691 1.706
-16.254 -5.737 -11.188
-9.214 -9.579 0.353
-24.204 -8.937 -18.710
-7.026 -8.713 1.173
-9.192 -9.570 0.365
-25.861 -8.851 -19.642
-7.580 -10.149 2.526
-24.203 -8.937 -18.709
-25.582 -8.619 -17.670
-9.191 -9.571 0.367
-15.858 -5.806 -10.696
-18.462 -9.942 -8.580
-9.150 -8.821 -0.332
-7.890 -9.691 1.710
-17.357 -11.768 -5.862
-13.145 -10.780 -3.048
-25.582 -8.619 -17.670
-10.568 -12.241 1.567
-26.499 -7.781 -19.336
-25.860 -8.851 -19.641
-12.614 -11.505 -1.139
-11.270 -10.003 -3.973
-15.925 -5.769 -10.806
-9.216 -9.575 0.346
-16.140 -5.667 -11.141
-25.414 -8.648 -19.166
-8.002 -10.181 2.131
-25.860 -8.851 -19.641
-18.346 -9.571 -8.854
-10.367 -9.753 -0.744
-18.346 -9.562 -8.865
-26.497 -7.782 -19.337
-15.930 -5.766 -10.814
-18.343 -9.577 -8.847
-10.366 -9.724 -0.779
-17.369 -11.769 -5.873
-25.860 -8.851 -19.641
-18.346 -9.572 -8.854
-7.895 -9.691 1.708
-7.895 -9.691 1.708
-26.498 -7.781 -19.326
-25.860 -8.851 -19.641
-17.362 -11.768 -5.867
-25.582 -8.619 -17.669
-25.191 -8.534 -17.395
-16.019 -5.642 -11.057
-8.768 -9.406 0.545
-7.888 -9.694 1.714
-17.351 -11.770 -5.852
-9.198 -9.559 0.358
-18.372 -9.567 -8.884
-7.545 -9.806 2.218
-17.402 -12.463 -5.022
-16.002 -5.733 -10.925
-7.675 -10.159 2.440
-25.428 -8.644 -19.184
-26.515 -7.782 -19.360
-14.064 -7.544 -6.471
-16.227 -5.626 -11.274
-25.878 -8.848 -19.665
-25.499 -6.748 -18.961
-18.380 -9.555 -8.896
-7.757 -2.079 -12.222
-16.046 -5.720 -10.981
-16.079 -5.251 -11.589
-17.420 -12.459 -5.044
-26.533 -7.779 -19.382
-12.638 -11.476 -1.188
-9.175 -8.798 -0.380
-7.760 -2.077 -12.230
-7.679 -10.164 2.440
-18.460 -9.549 -8.989
-18.948 -5.009 -17.700
-14.230 -7.516 -6.663
-17.434 -12.459 -5.057
-7.895 -9.697 1.712
-9.237 -8.808 -0.434
-18.398 -9.429 -9.003
-16.087 -5.618 -11.148
-9.258 -9.553 0.283
-9.237 -8.809 -0.434
-16.048 -5.717 -10.986
-9.279 -9.538 0.245
-9.237 -8.806 -0.436
-18.949 -5.009 -17.700
-7.895 -9.697 1.712
-16.048 -5.717 -10.986
-15.984 -5.754 -10.879
-17.353 -12.459 -4.980
-18.948 -5.009 -17.700
-26.534 -7.779 -19.384
-18.423 -9.532 -8.969
-7.553 -9.926 2.254
-9.242 -9.575 0.321
-18.425 -9.558 -8.947
-18.665 -5.030 -17.379
-18.459 -9.551 -8.978