-15.651 -8.108 -7.623
-26.813 -6.463 -20.556
-15.665 -8.110 -7.634
-15.665 -8.110 -7.634
-29.444 -7.879 -21.724
-28.237 -7.774 -20.798
-16.872 -8.459 -8.717
-26.813 -6.463 -20.556
-16.872 -8.459 -8.717
-18.472 -10.075 -8.429
-12.833 -5.208 -7.870
-24.288 -5.290 -19.170
-29.444 -7.879 -21.724
-24.288 -5.290 -19.170
-29.444 -7.879 -21.724
-24.288 -5.290 -19.170
-18.166 -7.631 -10.893
-29.444 -7.879 -21.724
-29.444 -7.879 -21.724
-29.444 -7.879 -21.724
-23.803 -5.276 -18.679
-21.002 -5.268 -15.909
-12.840 -5.206 -7.879
-16.659 -10.093 -6.687
-29.014 -7.890 -21.279
-15.670 -8.110 -7.639
-21.002 -5.268 -15.909
-24.293 -5.289 -19.176
-11.434 -5.756 -5.693
-16.649 -10.094 -6.675
-24.289 -5.290 -19.171
-24.141 -5.354 -18.954
-18.167 -7.631 -10.895
-26.818 -6.462 -20.561
-16.652 -10.094 -6.678
-15.541 -8.032 -7.592
-24.313 -5.286 -19.200
-17.974 -7.704 -10.341
-12.884 -5.195 -7.933
-16.264 -6.525 -10.509
-26.401 -6.453 -20.161
-25.713 -7.530 -18.494
-8.792 -6.178 -2.628
-29.493 -7.872 -21.780
-24.178 -5.346 -18.999
-29.493 -7.872 -21.780
-24.330 -5.282 -19.220
-25.724 -7.527 -18.507
-8.159 -7.890 -0.464
-18.055 -7.687 -10.439
-29.493 -7.872 -21.780
-13.843 -5.496 -8.596
-12.934 -5.185 -7.995
-21.152 -5.197 -16.129
-15.796 -8.057 -7.821
-27.191 -6.463 -20.789
-20.525 -4.723 -15.998
-24.330 -5.282 -19.220
-24.330 -5.282 -19.220
-18.233 -7.621 -10.964
-24.330 -5.282 -19.220
-29.062 -7.884 -21.335
-23.840 -5.269 -18.724
-22.597 -5.489 -17.412
-17.926 -6.696 -11.380
-24.796 -5.874 -18.973
-16.304 -6.512 -10.568
-16.123 -6.536 -10.358
-24.329 -5.282 -19.219
-21.222 -3.354 -18.120
-17.477 -7.249 -10.301
-24.339 -5.280 -19.231
-26.380 -6.473 -20.131
-27.464 -6.208 -21.481
-23.892 -4.423 -19.706
-18.261 -7.617 -10.996
-27.206 -6.462 -20.807
-13.852 -5.495 -8.607
-18.261 -7.617 -10.996
-27.206 -6.462 -20.807
-16.335 -6.504 -10.606
-18.553 -7.088 -11.601
-15.620 -7.999 -7.707
-27.463 -6.209 -21.479
-17.924 -6.535 -11.552
-8.855 -6.080 -2.788
-17.854 -6.371 -11.661
-18.262 -7.617 -10.996
-24.344 -5.280 -19.236
-25.889 -7.502 -18.692
-15.742 -7.944 -7.888
-17.921 -6.535 -11.548
-18.262 -7.617 -10.996
-20.857 -4.370 -16.694
-24.344 -5.280 -19.237
-27.206 -6.461 -20.807
-18.262 -7.617 -10.996
-17.482 -7.250 -10.305
-22.623 -5.485 -17.443
-29.082 -7.881 -21.357
-17.714 -6.591 -11.287
-15.622 -7.999 -7.708
-28.305 -7.765 -20.876
-22.021 -5.558 -16.789
-24.812 -5.872 -18.991
-15.751 -7.944 -7.896
-15.807 -8.044 -7.846
-28.305 -7.764 -20.877
-28.305 -7.764 -20.877
-27.206 -6.462 -20.806
-28.305 -7.764 -20.877
-12.957 -5.180 -8.023
-21.205 -5.176 -16.203
-27.745 -7.745 -20.323
-16.946 -8.462 -8.793
-18.559 -7.087 -11.607
-21.205 -5.176 -16.203
-23.855 -5.266 -18.741
-20.856 -4.369 -16.695
-18.266 -7.617 -11.001
-27.206 -6.462 -20.807
-24.345 -5.280 -19.238
-27.464 -6.208 -21.481
-22.506 -5.496 -17.315
-25.910 -7.500 -18.716
-23.109 -6.062 -17.187
-18.272 -7.615 -11.008
-17.496 -7.247 -10.321
-16.351 -6.501 -10.626
-20.871 -4.359 -16.720
-25.927 -7.499 -18.735
-18.106 -7.678 -10.500
-25.757 -7.523 -18.545
-18.272 -7.615 -11.009
-25.914 -7.500 -18.720
-24.365 -5.278 -19.261
-26.888 -6.451 -20.642
-25.911 -7.500 -18.718
-17.492 -7.247 -10.317
-19.563 -10.029 -9.560
-20.870 -4.360 -16.718
-29.111 -7.879 -21.388
-29.528 -7.868 -21.819
-29.528 -7.868 -21.819
-26.411 -6.472 -20.162
-23.108 -6.062 -17.185
-28.954 -7.904 -21.214
-26.886 -6.451 -20.640
-14.070 -5.569 -8.504
-25.907 -7.500 -18.713
-20.273 -2.554 -18.900
-26.411 -6.472 -20.161
-22.628 -5.484 -17.447
-29.111 -7.879 -21.388
-25.907 -7.500 -18.714
-24.362 -5.278 -19.257
-28.953 -7.904 -21.213
-22.529 -5.525 -17.304
-28.322 -7.763 -20.896
-29.527 -7.868 -21.819
-22.504 -5.496 -17.312
-11.464 -5.728 -5.753
-13.934 -5.601 -8.337
-16.062 -9.765 -6.313
-20.869 -4.360 -16.717
-27.783 -7.746 -20.363
-16.351 -6.501 -10.625
-20.689 -4.504 -16.387
-25.763 -7.522 -18.553
-22.635 -5.482 -17.457
-20.609 -2.518 -19.282
-25.763 -7.522 -18.553
-27.513 -6.204 -21.534
-25.763 -7.522 -18.553
-29.542 -7.867 -21.834
-22.539 -5.523 -17.316
-26.904 -6.448 -20.661
-21.223 -5.166 -16.232
-25.930 -7.498 -18.739
-29.125 -7.878 -21.403
-18.278 -7.614 -11.016
-25.763 -7.522 -18.553
-25.917 -7.498 -18.724
-27.796 -7.745 -20.377
-16.682 -10.089 -6.708
-8.870 -6.081 -2.802
-25.925 -7.498 -18.733
-23.122 -6.060 -17.202
-25.763 -7.522 -18.552
-21.959 -5.595 -16.685
-29.130 -7.878 -21.408
-26.484 -6.444 -20.252
-16.057 -9.767 -6.306
-16.057 -9.767 -6.306
-10.970 -7.615 -3.387
-25.926 -7.498 -18.734
-14.079 -5.567 -8.515
-16.359 -6.499 -10.636
-16.081 -9.763 -6.335
-27.800 -7.745 -20.381
-28.340 -7.762 -20.915
-26.484 -6.444 -20.252
-25.924 -7.498 -18.732
-15.216 -0.751 -14.684
-25.245 -5.803 -19.493
-22.864 -5.448 -17.723
-14.645 -7.801 -6.872
-22.756 -5.458 -17.607
-24.730 -5.810 -18.974
-6.520 -7.099 0.504
-28.277 -7.729 -20.906
-29.592 -7.838 -21.918
-12.785 -6.617 -6.232
-13.994 -5.508 -8.489
-25.495 -6.025 -19.527
-15.773 -0.042 -15.951
-22.859 -5.449 -17.717
-29.176 -7.849 -21.489
-27.165 -6.367 -20.870
-28.291 -7.727 -20.922
-27.885 -7.725 -20.499
-26.199 -7.464 -19.044
-24.332 -4.342 -20.213
-22.774 -5.454 -17.629
-13.862 -5.538 -8.328
-29.236 -7.597 -21.982
-26.200 -7.464 -19.044
-29.176 -7.849 -21.488
-22.313 -5.513 -17.129
-28.831 -7.742 -21.457
-24.860 -5.217 -19.830
-29.760 -7.848 -22.082
-22.313 -5.513 -17.129
-21.882 -5.609 -16.594
-25.686 -7.534 -18.462
-11.087 -5.312 -5.849
-24.306 -5.287 -19.191
-11.437 -5.750 -5.703
-29.464 -7.878 -21.745
-23.049 -6.073 -17.115
-25.696 -7.532 -18.475
-26.350 -6.480 -20.094
-16.028 -9.769 -6.275
-10.972 -5.401 -5.642
-25.721 -7.530 -18.503
-17.640 -5.610 -12.156
-11.449 -5.736 -5.729
-8.874 -6.131 -2.756
-12.612 -5.157 -7.701
-13.923 -5.603 -8.323
-26.382 -6.479 -20.127
-25.876 -7.506 -18.676
-13.697 -5.577 -8.125
-27.738 -7.753 -20.310
-25.963 -7.505 -18.796
-13.923 -5.603 -8.323
-16.139 -10.089 -6.143
-28.045 -7.770 -20.610
-24.426 -5.849 -18.629
-16.074 -6.554 -10.290
-22.488 -5.502 -17.290
-7.421 -5.586 -2.711
-11.450 -5.735 -5.731
-22.506 -5.532 -17.274
-28.912 -7.911 -21.164
-22.604 -5.490 -17.416
-29.066 -7.886 -21.335
-16.038 -9.769 -6.286
-22.505 -5.532 -17.273
-24.518 -7.501 -17.811
-28.880 -7.641 -21.575
-25.726 -7.530 -18.508
-16.104 -10.091 -6.107
-24.008 -4.396 -19.830
-25.880 -7.506 -18.680
-24.523 -7.501 -17.816
-25.726 -7.530 -18.508
-28.916 -7.911 -21.169
-25.420 -7.562 -18.102
-23.898 -4.432 -19.700
-29.070 -7.886 -21.339
-25.725 -7.530 -18.508
-26.382 -6.479 -20.125
-29.070 -7.886 -21.339
-27.466 -6.214 -21.476
-11.452 -5.736 -5.732
-22.508 -5.531 -17.277
-25.879 -7.506 -18.680
-28.880 -7.641 -21.575
-18.427 -7.109 -11.455
-16.986 -7.358 -9.698
-25.896 -7.505 -18.698
-15.747 -0.047 -15.920
-28.220 -7.736 -20.841
-26.677 -6.445 -20.456
-16.278 -10.079 -6.293
-25.672 -7.529 -18.389
-26.677 -6.445 -20.456
-22.838 -5.453 -17.691
-26.132 -7.474 -18.967
-24.266 -4.355 -20.132
-26.132 -7.474 -18.967
-8.859 -8.837 -0.063
-16.218 -9.753 -6.481
-27.149 -6.370 -20.851
-26.183 -7.467 -19.025
-26.732 -6.437 -20.520
-22.883 -5.445 -17.745
-16.293 -10.075 -6.312
-15.664 -10.268 -5.410
-17.063 -7.840 -9.233
-14.641 -7.802 -6.867
-14.807 -7.788 -7.046
-26.178 -7.467 -19.019
-24.309 -4.346 -20.184
-15.202 -0.754 -14.668
-16.281 -9.764 -6.530
-15.762 -0.044 -15.939
-29.285 -7.868 -21.584
-28.245 -7.733 -20.870
-16.227 -9.752 -6.491
-26.032 -7.479 -18.859
-22.860 -5.449 -17.717
-26.157 -7.470 -18.996
-19.127 -9.825 -9.511
-16.243 -10.087 -6.251
-26.748 -6.434 -20.539
-29.338 -7.862 -21.643
-24.800 -7.461 -18.142
-16.269 -9.767 -6.516
-8.858 -8.834 -0.065
-26.176 -7.467 -19.017
-14.602 -6.427 -8.227
-26.159 -7.470 -18.998
-26.159 -7.470 -18.998
-8.170 -6.463 -1.795
-27.138 -6.371 -20.840
-20.098 -2.444 -18.850
-26.743 -6.435 -20.532
-27.156 -6.369 -20.860
-7.342 -8.167 0.817
-8.144 -9.312 1.152
-15.761 -0.044 -15.936
-29.279 -7.869 -21.577
-27.301 -6.416 -20.950
-26.748 -6.434 -20.539
-21.236 -6.591 -15.075
-24.843 -6.761 -18.126
-15.415 -8.144 -7.312
-15.730 -10.247 -5.496
-15.256 -8.158 -7.142
-15.415 -8.144 -7.313
-16.447 -9.703 -6.766
-15.256 -8.158 -7.142
-11.391 -7.303 -4.191
-16.582 -10.022 -6.642
-16.547 -9.705 -6.863
-16.547 -9.705 -6.863
-16.447 -9.703 -6.766
-15.758 -10.245 -5.526
-15.274 -0.737 -14.757
-24.438 -6.772 -17.707
-7.426 -9.621 2.189
-21.205 -6.597 -15.038
-16.522 -9.707 -6.835
-16.522 -9.707 -6.835
-26.589 -7.120 -19.514
-14.760 -7.778 -7.011
-16.554 -9.704 -6.872
-15.273 -8.155 -7.163
-16.592 -10.022 -6.653
-15.273 -8.155 -7.163
-15.001 -0.742 -14.479
-15.599 -10.271 -5.338
-16.545 -9.705 -6.861
-15.793 -7.678 -8.144
-16.450 -9.702 -6.770
-16.515 -9.713 -6.822
-15.386 -9.716 -5.766
-16.562 -9.703 -6.880
-13.400 -8.444 -5.093
-16.563 -9.703 -6.881
-16.563 -9.703 -6.881
-16.601 -10.021 -6.662
-16.514 -9.713 -6.822
-16.027 -7.532 -8.546
-16.586 -10.022 -6.646
-7.430 -9.621 2.184
-8.214 -6.482 -1.806
-26.710 -6.655 -20.305
-16.682 -10.023 -6.741
-16.591 -10.022 -6.652
-16.554 -9.704 -6.871
-21.219 -6.594 -15.055
-16.980 -7.830 -9.158
-13.848 -7.200 -6.777
-16.578 -6.969 -9.677
-16.471 -9.699 -6.795
-16.703 -10.021 -6.764
-13.552 -0.417 -13.338
-7.355 -8.127 0.764
-21.226 -6.593 -15.064
-26.624 -7.116 -19.554
-16.687 -10.023 -6.746
-16.559 -9.703 -6.876
-7.346 -8.130 0.775
-15.442 -8.139 -7.346
-16.562 -9.703 -6.880
-30.254 -7.718 -22.698
-26.186 -7.466 -19.028
-24.794 -7.462 -18.136
-28.280 -7.728 -20.910
-14.136 -8.421 -6.604
-16.327 -10.075 -6.346
-13.336 -8.456 -5.016
-16.292 -9.762 -6.545
-13.858 -5.538 -8.324
-27.834 -6.170 -21.890
-16.207 -9.765 -6.456
-22.887 -5.443 -17.751
-22.887 -5.443 -17.751
-13.858 -5.538 -8.324
-24.797 -7.461 -18.140
-14.872 -6.399 -8.525
-22.859 -5.448 -17.717
-26.157 -7.470 -18.996
-16.200 -9.754 -6.462
-26.705 -6.440 -20.490
-15.763 -0.044 -15.939
-26.149 -7.471 -18.987
-26.694 -6.441 -20.477
-7.229 -8.175 0.937
-15.203 -0.754 -14.669
-26.701 -6.440 -20.484
-26.154 -7.470 -18.992
-28.244 -7.732 -20.868
-16.293 -9.762 -6.546
-22.888 -5.443 -17.752
-29.337 -7.862 -21.642
-24.798 -7.461 -18.140
-14.705 -6.412 -8.346
-26.158 -7.470 -18.997
-8.221 -9.319 1.083
-12.064 -7.190 -5.010
-27.157 -6.368 -20.862
-26.187 -7.465 -19.029
-16.217 -9.753 -6.480
-26.187 -7.465 -19.029
-29.334 -7.862 -21.638
-16.237 -9.752 -6.500
-16.872 -7.857 -9.024
-7.958 -2.887 -5.345
-27.575 -6.378 -21.270
-26.162 -7.469 -19.001
-15.202 -0.754 -14.668
-16.283 -10.076 -6.300
-16.198 -9.755 -6.459
-29.286 -7.868 -21.585
-12.814 -1.025 -12.008
-16.218 -9.754 -6.480
-16.218 -9.754 -6.480
-30.207 -7.724 -22.645
-26.699 -6.441 -20.483
-8.169 -6.463 -1.793
-22.870 -5.446 -17.731
-26.366 -6.459 -20.120
-24.455 -7.505 -17.745
-9.141 -9.446 0.162
-16.184 -9.793 -6.404
-19.647 -3.164 -16.765
-18.153 -9.096 -9.135
-8.209 -7.873 -0.544
-17.232 -10.428 -6.820
-24.545 -7.493 -17.848
-12.553 -6.644 -5.976
-16.373 -6.495 -10.656
-16.121 -9.789 -6.346
-14.940 -0.760 -14.401
-7.337 -8.169 0.825
-26.159 -7.468 -18.998
-16.958 -7.848 -9.119
-28.228 -7.734 -20.850
-8.321 -6.435 -1.984
-29.286 -7.867 -21.585
-14.707 -6.410 -8.349
-16.210 -9.755 -6.471
-11.156 -7.729 -3.460
-16.278 -9.764 -6.528
-15.528 -7.719 -7.838
-13.328 -0.456 -13.073
-26.130 -7.472 -18.965
-16.257 -9.765 -6.506
-14.769 -6.404 -8.416
-12.876 -1.019 -12.076
-16.812 -7.726 -9.164
-17.193 -7.669 -9.534
-11.166 -7.721 -3.477
-16.986 -7.849 -9.146
-8.170 -6.503 -1.751
-15.761 -10.291 -5.481
-14.642 -7.801 -6.868
-24.769 -7.464 -18.107
-16.270 -10.082 -6.284
-16.257 -9.768 -6.503
-16.281 -10.081 -6.295
-8.166 -6.502 -1.750
-16.124 -9.760 -6.380
-16.270 -10.082 -6.283
-16.270 -10.082 -6.283
-8.173 -6.459 -1.804
-15.770 -0.043 -15.947
-7.287 -8.176 0.881
-16.873 -7.855 -9.027
-9.271 -0.882 -8.759
-21.008 -3.169 -18.103
-15.590 -7.974 -7.702
-8.203 -7.873 -0.538
-17.755 -6.576 -11.342
-10.708 -7.444 -3.356
-20.671 -4.288 -16.598
-7.319 -5.613 -2.581
-15.969 -9.772 -6.213
-16.256 -10.114 -6.237
-20.612 -4.519 -16.296
-17.304 -7.273 -10.103
-8.147 -7.884 -0.468
-12.737 -2.657 -10.329
-16.165 -10.112 -6.147
-8.206 -7.873 -0.540
-7.418 -5.640 -2.620
-16.165 -10.112 -6.147
-8.638 -6.212 -2.439
-16.173 -8.813 -7.594
-16.107 -10.095 -6.108
-16.220 -9.790 -6.444
-11.049 -7.756 -3.326
-28.951 -7.905 -21.209
-7.341 -5.608 -2.611
-17.182 -7.305 -9.948
-6.383 -7.211 0.819
-8.209 -7.873 -0.544
-29.884 -7.758 -22.285
-24.553 -7.492 -17.857
-15.962 -9.773 -6.205
-22.525 -5.524 -17.301
-20.665 -4.296 -16.583
-7.429 -5.582 -2.724
-11.108 -5.168 -6.018
-16.120 -10.089 -6.124
-16.033 -10.089 -6.039
-8.201 -7.874 -0.535
-20.894 -4.359 -16.742
-20.665 -4.296 -16.583
-14.250 -9.965 -4.308
-9.260 -9.488 0.073
-6.715 -8.583 1.865
-20.664 -4.296 -16.582
-20.723 -4.438 -16.492
-15.962 -9.770 -6.209
-12.715 -5.132 -7.828
-16.213 -9.788 -6.439
-11.186 -5.146 -6.118
-20.606 -4.525 -16.283
-16.213 -9.788 -6.439
-16.168 -10.106 -6.152
-25.748 -7.523 -18.536
-24.547 -7.493 -17.850
-13.589 -5.490 -8.346
-11.632 -6.940 -4.886
-12.912 -2.603 -10.566
-16.120 -10.094 -6.122
-15.737 -10.304 -5.447
-11.632 -6.940 -4.886
-6.776 -7.821 1.042
-6.777 -7.817 1.037
-7.381 -5.597 -2.657
-15.212 -0.753 -14.678
-15.623 -10.276 -5.358
-6.027 -6.228 0.192
-14.692 -7.788 -6.933
-16.195 -9.758 -6.452
-11.655 -6.905 -4.948
-29.156 -7.850 -21.467
-8.215 -9.321 1.091
-16.148 -9.755 -6.408
-15.769 -0.044 -15.946
-6.465 -8.574 2.103
-16.202 -9.755 -6.463
-15.211 -0.753 -14.678
-16.342 -9.771 -6.583
-16.315 -10.087 -6.321
-16.310 -10.077 -6.327
-7.493 -5.566 -2.801
-21.003 -3.179 -18.087
-20.668 -4.293 -16.589
-16.062 -10.091 -6.068
-16.061 -9.767 -6.310
-12.912 -2.604 -10.566
-20.513 -4.584 -16.130
-16.060 -9.767 -6.309
-15.211 -0.753 -14.678
-11.795 -7.096 -4.870
-15.623 -10.275 -5.360
-16.342 -9.771 -6.583
-14.694 -7.788 -6.934
-11.795 -7.096 -4.871
-8.171 -9.308 1.121
-7.030 -9.701 2.657
-16.276 -9.765 -6.526
-7.374 -9.328 1.931
-16.315 -10.087 -6.321
-14.694 -7.788 -6.934
-15.557 -10.284 -5.285
-13.227 -0.492 -12.935
-22.837 -5.451 -17.693
-6.027 -6.228 0.192
-14.087 -8.411 -5.770
-6.099 -6.218 0.111
-16.186 -9.756 -6.446
-13.332 -8.463 -5.001
-7.505 -5.561 -2.819
-16.192 -10.076 -6.210
-15.210 -0.753 -14.677
-13.173 -8.463 -4.842
-16.196 -9.755 -6.456
-5.831 -7.959 2.116
-7.024 -9.697 2.658
-16.187 -9.756 -6.447
-11.347 -7.759 -3.619
-5.884 -8.096 2.199
-14.524 -7.802 -6.751
-13.254 -8.457 -4.930
-16.871 -7.855 -9.025
-16.805 -7.863 -8.951
-7.733 -7.603 -0.149
-16.196 -9.755 -6.457
-16.279 -10.075 -6.296
-15.665 -10.302 -5.374
-14.578 -7.809 -6.796
-5.882 -8.094 2.199
-15.591 -10.279 -5.323
-13.253 -8.457 -4.929
-6.097 -6.218 0.113
-16.269 -10.076 -6.285
-6.097 -6.218 0.113
-14.578 -7.809 -6.796
-16.804 -7.863 -8.949
-7.202 -7.896 0.509
-15.466 -9.736 -5.826
-16.288 -10.086 -6.293
-15.209 -0.753 -14.675
-13.171 -8.457 -4.846
-6.097 -6.218 0.114
-15.209 -0.753 -14.675
-15.768 -0.044 -15.944
-11.346 -7.759 -3.618
-8.115 -9.315 1.185
-6.095 -6.219 0.116
-6.323 -9.217 2.893
-16.193 -9.755 -6.454
-13.171 -8.457 -4.846
-15.508 -10.278 -5.242
-7.196 -7.888 0.505
-13.956 -9.918 -4.057
-15.528 -0.062 -15.685
-14.638 -9.386 -5.347
-6.912 -8.733 1.815
-7.007 -8.722 1.708
-7.355 -7.458 0.099
-5.055 -7.278 2.225
-5.330 -6.887 1.557
-5.330 -6.887 1.557
-5.055 -7.277 2.225
-4.883 -6.743 1.861
-7.921 -7.499 -0.465
-7.354 -7.458 0.101
-6.930 -8.726 1.790
-7.007 -8.722 1.708
-7.354 -7.458 0.100
-7.900 -7.479 -0.462
-5.297 -6.884 1.587
-7.416 -7.491 0.071
-4.849 -7.099 2.250
-4.849 -7.099 2.250
-7.296 -7.456 0.157
-5.297 -6.884 1.587
-7.296 -7.456 0.157
-5.002 -6.960 1.941
-7.296 -7.456 0.157
-5.006 -6.957 1.933
-4.372 -6.776 2.404
-5.000 -6.948 1.931
-4.733 -7.029 2.283
-5.297 -6.884 1.587
-5.000 -6.948 1.931
-7.416 -7.491 0.071
-5.297 -6.884 1.587
-4.368 -6.776 2.408
-7.392 -7.463 0.068
-7.954 -7.497 -0.499
-7.392 -7.463 0.068
-5.073 -6.967 1.876
-5.053 -7.277 2.226
-7.727 -7.832 0.089
-5.069 -6.970 1.883
-6.045 -5.198 -1.382
-7.954 -7.497 -0.500
-7.954 -7.496 -0.500
-5.358 -6.889 1.531
-5.073 -6.967 1.876
-5.053 -7.277 2.226
-7.513 -7.490 -0.027
-4.373 -6.775 2.403
-5.067 -6.958 1.874
-5.073 -6.967 1.876
-5.073 -6.967 1.876
-6.998 -8.742 1.738
-5.067 -6.958 1.874
-5.358 -6.889 1.531
-4.868 -7.099 2.231
-5.067 -6.958 1.874
-7.954 -7.497 -0.499
-5.380 -6.888 1.508
-4.372 -6.775 2.403
-5.358 -6.889 1.531
-4.783 -7.073 2.276
-5.380 -6.888 1.508
-5.801 -8.106 2.292
-4.982 -6.758 1.777
-5.358 -6.889 1.531
-7.954 -7.497 -0.500
-5.792 -8.056 2.261
-5.330 -6.887 1.556
-5.037 -6.954 1.900
-5.353 -6.886 1.533
-5.170 -7.027 1.803
-6.964 -8.740 1.770
-4.371 -6.776 2.404
-5.330 -6.887 1.556
-5.353 -6.886 1.533
-5.037 -6.954 1.900
-4.371 -6.776 2.405
-5.330 -6.887 1.556
-7.148 -9.171 2.005
-7.354 -7.459 0.101
-6.964 -8.740 1.770
-7.703 -7.833 0.113
-4.951 -6.755 1.805
-7.148 -9.171 2.005
-5.330 -6.887 1.556
-7.794 -7.832 0.022
-7.354 -7.459 0.101
-7.922 -7.499 -0.466
-5.037 -6.954 1.900
-5.330 -6.887 1.556
-8.102 -7.829 -0.289
-5.335 -6.889 1.553
-5.050 -7.277 2.229
-7.475 -7.487 0.009
-4.951 -6.755 1.805
-5.331 -6.887 1.556
-5.769 -8.111 2.328
-8.103 -7.829 -0.290
-5.331 -6.887 1.556
-5.328 -6.882 1.554
-5.330 -6.887 1.557
-7.703 -7.833 0.113
-5.052 -7.277 2.227
-5.331 -6.887 1.556
-6.040 -5.199 -1.376
-5.331 -6.887 1.556
-5.353 -6.886 1.533
-4.605 -6.789 2.184
-5.329 -6.890 1.561
-6.964 -8.740 1.770
-4.951 -6.755 1.805
-8.102 -7.829 -0.288
-5.792 -8.055 2.261
-7.900 -7.480 -0.461
-7.685 -8.791 1.003
-7.871 -7.505 -0.408
-5.297 -6.884 1.587
-5.304 -7.110 1.801
-5.002 -6.948 1.929
-4.636 -7.339 1.363
-7.295 -7.456 0.158
-5.296 -6.883 1.588
-5.018 -6.946 1.910
-4.916 -6.751 1.835
-5.296 -6.883 1.588
-5.001 -6.948 1.930
-8.586 -7.859 -0.735
-6.181 -8.103 1.756
-5.305 -7.110 1.801
-5.369 -7.162 1.793
-5.292 -6.885 1.593
-5.265 -5.276 -0.042
-4.369 -6.776 2.407
-5.048 -7.278 2.232
-7.595 -8.779 1.185
-7.147 -9.171 2.005
-4.460 -6.709 2.250
-6.772 -7.398 0.446
-5.774 -8.037 2.260
-5.297 -6.883 1.587
-6.947 -8.739 1.787
-5.292 -6.885 1.592
-7.234 -7.435 0.198
-5.297 -6.884 1.587
-7.296 -7.456 0.157
-4.917 -6.751 1.834
-4.917 -6.751 1.834
-4.369 -6.776 2.408
-5.118 -7.043 1.919
-5.748 -8.105 2.343
-5.297 -6.883 1.587
-4.733 -7.021 2.275
-5.008 -6.957 1.931
-4.917 -6.751 1.834
-4.778 -6.585 1.809
-5.297 -6.884 1.587
-6.923 -8.739 1.811
-7.755 -7.833 0.061
-7.232 -7.971 0.724
-4.186 -6.811 2.625
-5.047 -7.278 2.233
-5.002 -6.948 1.929
-4.396 -6.422 2.027
-5.296 -6.883 1.587
-5.857 -8.089 2.117
-5.319 -6.882 1.563
-4.918 -6.751 1.834
-5.002 -6.948 1.929
-7.115 -9.177 2.043
-6.947 -8.740 1.787
-4.563 -6.891 2.331
-5.748 -8.104 2.343
-5.117 -7.043 1.919
-4.487 -6.509 2.025
-8.064 -7.830 -0.249
-5.793 -8.128 2.321
-8.063 -7.830 -0.249
-5.319 -6.882 1.563
-7.307 -9.183 1.861
-6.945 -8.786 1.842
-5.297 -6.883 1.587
-5.297 -6.883 1.587
-5.283 -5.306 -0.030
-5.123 -7.052 1.922
-5.297 -6.883 1.587
-5.098 -7.219 2.116
-7.454 -7.269 -0.198
-5.002 -6.948 1.929
-5.002 -6.948 1.929
-5.319 -6.882 1.563
-7.871 -7.505 -0.409
-6.034 -5.201 -1.369
-4.740 -7.071 2.333
-7.296 -7.456 0.156
-4.513 -6.508 1.997
-6.866 -6.881 -0.014
-5.119 -7.043 1.917
-4.780 -6.586 1.808
-8.075 -7.843 -0.245
-4.921 -7.104 2.184
-5.270 -6.910 1.640
-7.148 -9.171 2.004
-7.871 -7.505 -0.408
-7.454 -7.269 -0.198
-5.047 -7.278 2.234
-7.051 -7.405 0.165
-7.296 -7.456 0.157
-5.002 -6.948 1.929
-7.924 -7.830 -0.110
-7.307 -9.184 1.861
-5.292 -6.885 1.593
-7.755 -7.834 0.063
-6.785 -7.651 0.844
-7.296 -7.456 0.157
-5.746 -8.103 2.344
-7.871 -7.505 -0.408
-7.890 -8.891 1.002
-7.977 -7.509 -0.512
-7.325 -9.184 1.843
-6.947 -8.739 1.786
-6.940 -7.929 0.990
-4.518 -6.521 2.005
-5.296 -6.883 1.587
-5.002 -6.948 1.929
-4.778 -6.585 1.809
-7.628 -7.410 -0.427
-7.454 -7.269 -0.197
-8.586 -7.859 -0.736
-5.301 -6.885 1.584
-5.002 -6.948 1.929
-6.494 -6.373 -0.160
-4.518 -6.521 2.005
-3.898 -6.151 2.255
-5.002 -6.948 1.929
-7.755 -7.833 0.061
-4.437 -6.763 2.326
-7.871 -7.505 -0.408
-7.595 -8.779 1.184
-4.610 -6.249 1.637
-5.119 -7.043 1.918
-5.296 -6.883 1.587
-6.960 -7.930 0.971
-7.764 -7.932 0.168
-5.370 -7.162 1.792
-7.579 -7.900 0.322
-5.748 -8.104 2.342
-7.977 -7.509 -0.512
-7.378 -9.927 2.497
-5.718 -8.096 2.366
-5.117 -7.043 1.919
-5.117 -7.043 1.919
-5.359 -7.161 1.803
-5.236 -6.671 1.437
-4.450 -6.689 2.241
-5.318 -6.882 1.564
-7.870 -7.505 -0.408
-4.936 -6.750 1.815
-6.675 -7.402 0.546
-7.401 -9.241 1.833
-7.940 -8.906 0.968
-6.946 -8.739 1.787
-5.296 -6.883 1.588
-4.599 -6.892 2.296
-7.028 -8.736 1.702
-5.363 -6.888 1.525
-8.070 -7.499 -0.614
-4.535 -6.524 1.991
-4.801 -6.617 1.818
-5.380 -6.888 1.508
-5.067 -6.958 1.874
-7.512 -7.490 -0.027
-5.084 -7.340 2.253
-4.208 -5.906 1.697
-8.128 -7.840 -0.300
-4.982 -6.758 1.777
-8.061 -7.499 -0.605
-8.061 -7.499 -0.605
-5.437 -7.006 1.569
-5.309 -6.910 1.601
-6.745 -7.398 0.472
-4.877 -6.777 1.900
-8.127 -7.841 -0.300
-7.542 -7.254 -0.300
-7.542 -7.254 -0.300
-7.954 -7.497 -0.500
-5.846 -8.126 2.266
-7.389 -9.181 1.777
-4.556 -6.523 1.970
-6.925 -7.393 0.285
-5.073 -6.967 1.876
-5.436 -7.007 1.571
-4.614 -6.789 2.176
-4.200 -6.401 2.200
-7.033 -8.736 1.698
-7.009 -8.722 1.706
-7.589 -7.902 0.314
-7.132 -9.177 2.027
-6.985 -8.741 1.751
-5.037 -6.953 1.899
-4.951 -6.755 1.805
-4.802 -6.591 1.790
-4.951 -6.755 1.805
-6.978 -6.365 -0.641
-7.923 -7.499 -0.467
-3.948 -6.189 2.243
-5.042 -4.992 -0.058
-5.425 -7.009 1.585
-6.963 -8.792 1.830
-7.922 -7.499 -0.465
-4.672 -7.066 2.393
-5.352 -6.886 1.534
-3.947 -6.212 2.268
-7.922 -7.499 -0.465
-5.150 -7.047 1.890
-5.792 -8.052 2.257
-7.087 -7.403 0.127
-6.978 -6.366 -0.640
-5.298 -6.911 1.613
-5.298 -6.911 1.614
-4.290 -6.417 2.129
-5.792 -8.048 2.254
-6.506 -6.373 -0.170
-5.352 -6.886 1.533
-5.813 -8.134 2.306
-4.951 -6.755 1.805
-7.792 -7.832 0.023
-8.029 -7.502 -0.570
-7.474 -7.487 0.009
-5.352 -6.886 1.534
-5.149 -7.047 1.892
-4.604 -6.789 2.185
-5.330 -6.887 1.557
-4.970 -6.755 1.786
-7.090 -7.403 0.124
-6.898 -7.394 0.313
-7.354 -7.459 0.101
-7.354 -7.458 0.101
-7.900 -8.894 0.995
-4.951 -6.755 1.806
-8.029 -7.502 -0.570
-5.270 -5.284 -0.040
-8.838 -7.855 -0.990
-7.089 -7.403 0.125
-4.951 -6.755 1.805
-5.330 -6.887 1.557
-7.767 -7.933 0.167
-6.898 -7.394 0.313
-4.951 -6.755 1.805
-6.718 -7.399 0.500
-7.092 -7.403 0.122
-5.352 -6.886 1.534
-7.588 -7.902 0.314
-5.352 -6.886 1.534
-6.990 -8.802 1.813
-5.396 -6.880 1.484
-5.148 -7.047 1.892
-5.352 -6.886 1.534
-6.898 -7.394 0.313
-8.081 -7.520 -0.599
-7.354 -7.458 0.101
-4.511 -6.518 2.010
-5.548 -8.633 3.083
-7.029 -8.746 1.712
-8.108 -7.994 -0.114
-7.032 -7.393 0.175
-5.300 -6.910 1.610
-5.039 -6.966 1.909
-6.796 -7.665 0.847
-5.147 -7.047 1.893
-5.011 -7.119 2.104
-7.921 -7.499 -0.465
-5.407 -7.270 1.862
-6.796 -7.665 0.847
-5.329 -6.887 1.557
-5.321 -6.887 1.566
-5.792 -8.055 2.261
-5.153 -7.056 1.896
-6.813 -7.396 0.401
-4.587 -6.891 2.307
-7.354 -7.458 0.101
-5.501 -5.042 -0.461
-7.165 -9.172 1.988
-5.147 -7.047 1.893
-4.463 -6.690 2.228
-5.330 -6.887 1.557
-8.029 -7.502 -0.570
-4.784 -6.588 1.806
-5.150 -7.047 1.890
-7.340 -9.186 1.829
-5.011 -7.119 2.104
-4.758 -7.056 2.285
-5.050 -7.277 2.229
-5.547 -8.633 3.083
-5.353 -6.886 1.533
-7.715 -8.790 0.972
-7.171 -7.951 0.764
-5.792 -8.052 2.258
-4.958 -6.757 1.799
-7.712 -8.791 0.976
-7.902 -8.897 0.995
-7.174 -9.187 1.988
-6.983 -8.741 1.752
-8.029 -7.502 -0.570
-4.970 -6.755 1.786
-5.270 -5.285 -0.038
-6.899 -7.394 0.313
-6.899 -7.394 0.313
-7.972 -7.516 -0.491
-7.046 -8.737 1.686
-7.922 -7.499 -0.465
-6.810 -6.645 -0.168
-7.340 -9.186 1.829
-4.951 -6.755 1.805
-7.354 -7.459 0.102
-7.900 -8.894 0.995
-7.746 -7.930 0.184
-7.922 -7.499 -0.465
-4.537 -6.517 1.982
-5.330 -6.887 1.557
-4.422 -6.884 2.464
-5.330 -6.887 1.557
-7.922 -7.499 -0.465
-7.090 -7.402 0.123
-5.882 -8.150 2.262
-7.922 -7.499 -0.465
-6.984 -8.741 1.751
-6.898 -7.394 0.313
-7.096 -8.756 1.655
-4.781 -6.586 1.807
-6.800 -6.891 0.060
-6.505 -8.493 1.956
-4.951 -6.755 1.805
-8.513 -9.108 0.595
-7.851 -9.400 1.547
-7.768 -7.933 0.166
-6.984 -8.741 1.752
-7.504 -7.258 -0.259
-7.939 -7.460 -0.496
-9.526 -8.319 -1.231
-9.857 -8.350 -1.530
-9.857 -8.350 -1.530
-9.700 -7.129 -2.615
-9.857 -8.350 -1.530
-6.805 -8.251 1.409
-9.857 -8.350 -1.530
-9.857 -8.350 -1.530
-9.857 -8.350 -1.530
-9.857 -8.350 -1.530
-15.737 -4.988 -11.055
-6.805 -8.252 1.409
-8.235 -7.043 -1.228
-10.019 -6.618 -3.482
-8.091 -7.068 -1.058
-8.235 -7.042 -1.228
-7.996 -7.403 -0.614
-9.867 -8.348 -1.541
-11.149 -7.362 -3.853
-10.532 -7.285 -3.322
-9.867 -8.348 -1.541
-8.236 -7.043 -1.228
-11.548 -7.361 -4.246
-11.250 -7.334 -3.979
-8.235 -7.043 -1.227
-10.649 -7.573 -3.133
-8.234 -7.044 -1.226
-9.227 -8.421 -0.824
-8.091 -7.069 -1.056
-11.544 -7.361 -4.241
-13.810 -0.619 -13.426
-8.387 -8.213 -0.221
-12.334 -6.822 -5.581
-13.810 -0.619 -13.426
-12.215 -6.865 -5.422
-8.220 -7.048 -1.207
-9.907 -7.210 -2.734
-10.556 -8.375 -2.269
-8.109 -7.452 -0.675
-10.072 -8.329 -1.765
-9.399 -7.966 -1.549
-9.125 -8.432 -0.710
-11.557 -7.259 -4.364
-6.638 -7.099 0.352
-11.317 -8.718 -2.651
-11.494 -6.813 -4.760
-11.494 -6.813 -4.760
-9.764 -6.750 -3.089
-7.117 -8.233 1.073
-8.021 -0.885 -7.462
-8.073 -7.073 -1.034
-7.119 -8.233 1.072
-12.215 -6.865 -5.421
-11.493 -6.813 -4.759
-13.811 -0.619 -13.427
-12.720 -6.816 -5.967
-11.494 -6.813 -4.761
-7.119 -8.233 1.072
-10.029 -3.424 -6.943
-11.248 -7.334 -3.977
-9.680 -8.387 -1.311
-9.784 -6.735 -3.125
-10.648 -7.573 -3.132
-15.226 -0.027 -15.414
-11.315 -8.656 -2.725
-15.081 -0.070 -15.224
-14.621 -0.691 -14.154
-12.212 -6.866 -5.417
-7.195 -8.261 1.029
-7.284 -4.346 -3.137
-7.118 -8.233 1.072
-7.118 -8.233 1.072
-11.628 -8.747 -2.940
-9.997 -6.645 -3.433
-11.254 -8.264 -3.041
-7.119 -8.233 1.071
-10.557 -8.375 -2.270
-8.110 -7.452 -0.675
-14.977 -0.795 -14.399
-12.332 -6.824 -5.577
-10.071 -8.330 -1.763
-7.118 -8.233 1.072
-9.766 -6.750 -3.092
-12.332 -6.823 -5.578
-8.109 -7.452 -0.674
-15.081 -0.071 -15.224
-8.109 -7.452 -0.675
-7.054 -0.791 -6.556
-12.213 -6.866 -5.418
-13.910 -0.631 -13.511
-8.218 -7.048 -1.205
-8.218 -7.048 -1.205
-8.111 -7.452 -0.676
-8.111 -7.452 -0.676
-5.171 -7.337 2.133
-8.112 -7.452 -0.678
-15.112 -0.065 -15.261
-14.184 -0.624 -13.792
-6.607 -8.224 1.565
-9.185 -8.083 -1.203
-10.570 -6.885 -3.722
-8.111 -7.452 -0.676
-8.111 -7.452 -0.676
-12.341 -6.820 -5.590
-12.222 -6.863 -5.430
-7.235 -8.226 0.946
-6.568 -6.953 0.352
-9.999 -6.640 -3.440
-6.986 -8.257 1.236
-8.111 -7.452 -0.676
-15.644 -0.087 -15.775
-7.119 -8.233 1.072
-8.220 -7.047 -1.208
-11.500 -6.811 -4.768
-14.184 -0.624 -13.792
-7.121 -4.395 -2.895
-14.655 -0.685 -14.195
-8.237 -7.453 -0.802
-7.809 -3.890 -4.113
-14.430 -0.717 -13.936
-11.499 -6.811 -4.767
-8.952 -8.443 -0.528
-7.302 -4.327 -3.178
-4.484 -6.702 2.197
-10.545 -8.377 -2.256
-8.944 -8.445 -0.518
-13.909 -0.049 -14.065
-15.262 -0.021 -15.457
-11.569 -7.258 -4.377
-7.121 -4.395 -2.896
-14.925 -0.019 -15.121
-16.205 -9.753 -6.468
-11.318 -8.718 -2.653
-11.500 -6.811 -4.768
-9.998 -6.642 -3.436
-7.631 -6.569 -1.191
-8.240 -7.453 -0.805
-13.911 -0.631 -13.512
-13.911 -0.631 -13.512
-8.110 -7.452 -0.676
-4.487 -6.701 2.194
-7.234 -8.226 0.947
-14.659 -0.684 -14.200
-8.219 -7.048 -1.207
-15.264 -0.021 -15.459
-9.089 -7.684 -1.451
-10.974 -8.694 -2.346
-8.220 -7.047 -1.208
-16.215 -9.750 -6.482
-15.271 -0.018 -15.469
-11.573 -7.257 -4.382
-6.149 -7.540 1.254
-9.434 -7.489 -2.001
-14.192 -0.621 -13.802
-8.963 -8.443 -0.538
-11.560 -7.258 -4.368
-11.504 -6.810 -4.774
-7.124 -4.391 -2.904
-14.194 -0.621 -13.805
-9.737 -7.416 -2.776
-13.920 -0.628 -13.525
-7.219 -8.280 1.013
-6.862 -0.762 -6.394
-13.025 -0.558 -12.705
-11.566 -7.257 -4.374
-9.932 -7.862 -2.116
-7.784 -7.282 -0.528
-9.403 -7.961 -1.559
-8.244 -7.452 -0.809
-14.669 -0.682 -14.211
-8.223 -7.047 -1.211
-16.299 -10.073 -6.318
-3.230 -5.886 2.658
-14.669 -0.682 -14.212
-13.025 -0.558 -12.706
-11.636 -8.746 -2.949
-10.001 -6.637 -3.445
-14.667 -0.682 -14.210
-5.391 -5.387 -0.215
-11.635 -8.746 -2.948
-11.504 -6.810 -4.774
-3.693 -6.371 2.679
-7.197 -8.261 1.027
-9.696 -7.306 -2.785
-10.000 -6.636 -3.444
-9.744 -7.416 -2.787
-3.693 -6.371 2.679
-14.502 -0.701 -14.029
-7.232 -8.226 0.949
-11.336 -7.188 -4.214
-9.433 -7.488 -2.000
-14.192 -0.622 -13.803
-8.613 -0.824 -8.127
-9.430 -7.489 -1.996
-9.997 -6.639 -3.439
-7.234 -8.226 0.947
-4.559 -7.402 2.843
-11.681 -7.331 -4.411
-7.956 -3.580 -4.642
-8.215 -3.331 -5.199
-15.270 -0.019 -15.467
-9.993 -6.643 -3.430
-9.426 -7.492 -1.989
-13.544 -0.438 -13.308
-8.655 -8.448 -0.229
-13.919 -0.629 -13.523
-12.226 -6.862 -5.435
-8.953 -8.442 -0.529
-15.272 -0.018 -15.470
-13.025 -0.558 -12.705
-14.694 -0.034 -14.873
-9.444 -7.557 -1.939
-9.739 -7.415 -2.780
-8.222 -7.047 -1.211
-9.451 -7.553 -1.950
-7.853 -7.325 -0.554
-4.724 -5.440 0.708
-7.533 -5.553 -2.859
-16.224 -10.088 -6.233
-8.755 -7.995 -0.898
-7.784 -7.282 -0.529
-13.918 -0.046 -14.077
-16.291 -10.071 -6.310
-7.472 -6.568 -1.032
-4.687 -7.553 2.867
-13.549 -0.437 -13.314
-8.962 -8.444 -0.535
-7.526 -5.555 -2.850
-8.223 -7.048 -1.210
-7.811 -5.214 -2.652
-6.149 -7.540 1.254
-12.893 -1.021 -12.092
-8.115 -7.451 -0.681
-12.885 -0.483 -12.599
-14.667 -0.682 -14.210
-14.512 -0.701 -14.037
-8.240 -7.452 -0.806
-8.946 -8.440 -0.524
-7.033 -9.687 2.640
-9.272 -8.468 -0.819
-7.926 -7.454 -0.490
-8.112 -7.451 -0.678
-11.504 -6.810 -4.773
-16.141 -9.751 -6.406
-7.924 -7.462 -0.480
-7.784 -7.283 -0.529
-8.225 -7.046 -1.213
-7.124 -4.391 -2.903
-7.777 -7.284 -0.520
-8.239 -7.452 -0.805
-13.920 -0.628 -13.524
-9.431 -7.492 -1.995
-8.540 -8.097 -0.486
-8.964 -8.443 -0.539
-8.615 -0.824 -8.129
-4.508 -6.702 2.174
-13.290 -0.643 -12.878
-7.957 -3.579 -4.644
-13.255 -8.796 -4.505
-8.239 -7.452 -0.805
-16.220 -9.749 -6.488
-13.546 -0.437 -13.311
-8.962 -8.444 -0.535
-7.928 -7.454 -0.491
-11.319 -8.717 -2.654
-7.855 -7.325 -0.556
-11.319 -8.717 -2.655
-13.920 -0.629 -13.524
-8.013 -6.570 -1.576
-9.738 -7.416 -2.776
-4.710 -5.440 0.723
-16.216 -9.750 -6.483
-7.900 -7.500 -0.416
-9.746 -7.416 -2.790
-11.504 -6.810 -4.774
-13.920 -0.628 -13.525
-13.920 -0.628 -13.525
-7.813 -3.882 -4.126
-9.257 -8.469 -0.804
-8.011 -6.571 -1.574
-7.303 -5.170 -2.176
-7.122 -8.233 1.068
-12.726 -6.814 -5.975
-7.476 -6.567 -1.037
-10.000 -6.638 -3.442
-7.463 -5.570 -2.774
-9.088 -7.680 -1.454
-7.853 -7.325 -0.553
-4.625 -7.158 2.534
-3.693 -6.371 2.679