-8.330 -7.301 -1.021
-7.114 -7.332 0.228
-7.523 -7.552 0.036
-8.321 -7.304 -1.010
-7.023 -6.911 -0.099
-7.500 -7.551 0.058
-7.699 -7.335 -0.356
-7.699 -7.335 -0.356
-8.300 -7.448 -0.844
-8.321 -7.304 -1.010
-8.321 -7.304 -1.010
-7.022 -6.922 -0.086
-6.747 -6.819 0.080
-8.321 -7.304 -1.010
-8.321 -7.304 -1.010
-7.990 -7.301 -0.673
-7.023 -6.915 -0.094
-7.699 -7.335 -0.356
-8.321 -7.304 -1.010
-7.500 -7.551 0.058
-7.699 -7.335 -0.356
-7.523 -7.552 0.036
-8.387 -7.292 -1.087
-6.999 -7.331 0.343
-8.321 -7.304 -1.010
-8.321 -7.304 -1.010
-7.499 -7.551 0.058
-6.709 -7.148 0.446
-7.022 -6.912 -0.097
-6.751 -7.145 0.402
-7.499 -7.551 0.058
-9.101 -6.825 -2.265
-7.022 -6.915 -0.094
-6.779 -6.906 0.144
-8.336 -7.251 -1.070
-8.321 -7.304 -1.010
-8.321 -7.304 -1.010
-7.500 -7.551 0.058
-6.750 -7.146 0.403
-7.023 -6.915 -0.094
-6.192 -6.648 0.465
-8.322 -7.304 -1.011
-6.274 -6.881 0.618
-7.503 -7.550 0.053
-8.181 -6.984 -1.182
-9.072 -6.900 -2.180
-8.322 -7.304 -1.010
-8.319 -7.290 -1.021
-7.503 -7.550 0.053
-8.322 -7.304 -1.011
-8.322 -7.304 -1.011
-7.670 -7.358 -0.309
-8.183 -6.983 -1.186
-8.424 -6.842 -1.568
-6.769 -7.150 0.388
-7.996 -6.946 -1.038
-6.716 -7.146 0.437
-7.503 -7.550 0.053
-8.322 -7.304 -1.011
-7.080 -6.812 -0.255
-8.302 -7.448 -0.846
-7.503 -7.550 0.053
-8.424 -6.842 -1.567
-6.769 -7.150 0.388
-6.752 -7.145 0.401
-8.223 -7.018 -1.191
-7.437 -7.548 0.118
-7.702 -7.335 -0.359
-7.655 -7.357 -0.295
-8.318 -7.266 -1.038
-8.386 -6.832 -1.539
-8.307 -7.250 -1.048
-6.752 -7.146 0.402
-8.303 -6.674 -1.618
-8.322 -7.304 -1.011
-6.717 -7.145 0.435
-6.551 -7.003 0.462
-7.702 -7.335 -0.359
-8.380 -6.833 -1.533
-8.317 -7.265 -1.038
-8.386 -6.831 -1.540
-7.503 -7.550 0.053
-9.072 -6.900 -2.179
-8.240 -7.486 -0.742
-7.702 -7.335 -0.359
-8.224 -7.018 -1.190
-10.134 -9.330 -0.791
-6.695 -7.139 0.451
-8.424 -6.842 -1.568
-9.085 -6.743 -2.344
-9.385 -6.762 -2.633
-9.071 -6.899 -2.179
-7.139 -7.103 -0.020
-6.746 -6.820 0.082
-8.302 -7.448 -0.846
-7.026 -6.915 -0.097
-7.503 -7.550 0.053
-8.322 -7.304 -1.011
-8.322 -7.304 -1.011
-7.026 -6.915 -0.097
-8.322 -7.304 -1.011
-7.702 -7.335 -0.359
-6.771 -6.825 0.062
-6.752 -7.147 0.402
-7.503 -7.550 0.053
-6.249 -6.885 0.647
-8.424 -6.842 -1.567
-8.424 -6.842 -1.568
-7.702 -7.335 -0.359
-7.024 -6.899 -0.112
-6.724 -6.817 0.101
-7.610 -7.151 -0.470
-7.139 -7.102 -0.021
-7.653 -6.940 -0.698
-8.317 -7.266 -1.037
-7.368 -7.050 -0.303
-7.503 -7.550 0.053
-8.223 -7.018 -1.191
-8.322 -7.304 -1.011
-8.078 -7.331 -0.741
-6.782 -6.903 0.138
-7.617 -7.339 -0.270
-8.302 -7.448 -0.846
-8.322 -7.304 -1.011
-6.769 -7.150 0.389
-8.322 -7.304 -1.011
-8.223 -7.018 -1.189
-6.751 -7.147 0.403
-7.078 -6.812 -0.253
-7.298 -7.539 0.248
-8.424 -6.842 -1.568
-7.503 -7.550 0.053
-8.302 -7.448 -0.846
-8.063 -6.905 -1.143
-6.751 -7.145 0.402
-7.026 -6.914 -0.098
-8.279 -7.478 -0.788
-7.617 -7.339 -0.270
-6.707 -6.952 0.261
-6.689 -7.143 0.461
-7.702 -7.335 -0.359
-6.752 -7.147 0.402
-6.693 -7.142 0.456
-8.078 -7.331 -0.742
-8.062 -6.896 -1.152
-7.100 -7.333 0.243
-8.240 -7.486 -0.742
-8.317 -7.264 -1.038
-7.616 -7.339 -0.269
-7.100 -7.333 0.243
-8.060 -7.073 -0.985
-8.078 -7.331 -0.741
-6.755 -6.958 0.220
-7.957 -7.340 -0.602
-5.509 -7.163 1.670
-6.693 -7.142 0.456
-7.702 -7.335 -0.359
-7.026 -6.915 -0.097
-8.785 -6.847 -1.939
-7.299 -7.540 0.248
-6.801 -7.415 0.616
-7.702 -7.335 -0.359
-7.702 -7.335 -0.359
-6.707 -6.951 0.262
-6.707 -6.952 0.262
-7.355 -7.048 -0.293
-8.223 -7.018 -1.190
-6.692 -7.142 0.457
-5.284 -6.675 1.407
-7.025 -6.913 -0.098
-7.002 -7.331 0.340
-7.026 -6.915 -0.097
-7.026 -6.915 -0.097
-8.184 -6.981 -1.188
-7.503 -7.550 0.053
-9.385 -6.762 -2.633
-7.702 -7.335 -0.359
-8.078 -7.331 -0.742
-8.223 -7.018 -1.191
-6.536 -7.006 0.480
-8.424 -6.842 -1.568
-6.723 -6.817 0.101
-7.368 -7.051 -0.303
-8.116 -7.335 -0.775
-8.184 -6.982 -1.186
-8.116 -7.335 -0.775
-7.186 -6.781 -0.408
-8.320 -7.511 -0.796
-5.555 -6.922 1.381
-7.368 -7.051 -0.303
-8.104 -6.917 -1.173
-8.078 -7.331 -0.742
-5.814 -6.870 1.058
-8.318 -7.266 -1.037
-7.011 -6.811 -0.187
-5.284 -6.675 1.407
-7.437 -7.549 0.118
-7.437 -7.549 0.118
-8.302 -7.448 -0.846
-8.102 -6.917 -1.170
-6.711 -6.949 0.256
-8.077 -7.332 -0.741
-8.077 -7.332 -0.741
-7.119 -6.831 -0.274
-4.492 -6.461 1.984
-8.103 -6.916 -1.173
-8.320 -7.509 -0.799
-7.012 -6.810 -0.189
-8.062 -6.905 -1.142
-6.746 -6.820 0.082
-8.078 -7.331 -0.742
-6.718 -7.145 0.434
-7.063 -7.333 0.279
-8.319 -7.267 -1.038
-8.424 -6.842 -1.567
-8.223 -7.017 -1.191
-8.230 -7.036 -1.179
-8.078 -7.331 -0.742
-9.071 -6.900 -2.179
-8.302 -7.448 -0.846
-8.102 -6.917 -1.170
-5.833 -8.393 2.572
-7.310 -7.459 0.156
-6.705 -6.952 0.265
-8.179 -6.984 -1.181
-8.077 -7.332 -0.741
-8.689 -10.090 1.416
-7.702 -7.335 -0.358
-6.600 -6.916 0.322
-4.756 -6.596 1.856
-6.273 -6.881 0.619
-6.709 -6.950 0.258
-8.078 -7.331 -0.742
-8.322 -7.304 -1.011
-9.070 -6.900 -2.179
-5.520 -7.218 1.708
-9.073 -6.892 -2.189
-8.182 -6.982 -1.185
-6.854 -6.776 -0.081
-4.756 -6.594 1.855
-6.552 -7.003 0.462
-6.271 -6.876 0.599
-8.783 -6.848 -1.936
-8.063 -6.905 -1.144
-7.301 -7.044 -0.243
-7.611 -7.340 -0.263
-7.297 -7.543 0.253
-7.325 -7.463 0.145
-7.448 -7.550 0.109
-8.330 -7.301 -1.021
-7.025 -6.807 -0.205
-8.073 -6.902 -1.157
-7.037 -6.912 -0.111
-8.322 -7.508 -0.801
-7.298 -7.539 0.248
-6.353 -7.148 0.798
-6.722 -6.946 0.242
-8.070 -6.904 -1.151
-6.724 -7.144 0.428
-7.449 -7.459 0.017
-4.757 -6.595 1.855
-7.040 -6.913 -0.113
-9.100 -6.887 -2.221
-8.330 -7.301 -1.022
-8.083 -7.329 -0.750
-5.531 -7.207 1.687
-5.180 -7.093 1.926
-4.756 -6.595 1.856
-8.330 -7.301 -1.022
-5.757 -7.044 1.288
-8.083 -7.329 -0.750
-6.562 -7.309 0.754
-6.803 -7.415 0.614
-8.331 -7.261 -1.056
-8.803 -6.839 -1.965
-5.283 -6.673 1.406
-7.014 -7.330 0.327
-9.097 -6.887 -2.218
-8.083 -7.329 -0.749
-5.735 -6.873 1.140
-5.735 -6.867 1.135
-7.712 -7.331 -0.373
-6.556 -7.307 0.758
-5.284 -6.675 1.407
-6.104 -6.875 0.764
-9.099 -6.887 -2.220
-5.064 -6.900 1.826
-5.135 -7.050 1.929
-8.868 -6.938 -1.919
-7.295 -6.380 -0.897
-4.444 -6.463 2.035
-6.994 -7.175 0.187
-6.553 -7.004 0.461
-8.091 -7.328 -0.748
-6.276 -6.877 0.595
-7.712 -7.332 -0.372
-8.968 -6.877 -2.099
-7.625 -7.336 -0.281
-7.014 -7.329 0.326
-5.317 -6.772 1.463
-7.453 -7.545 0.099
-8.504 -7.491 -1.001
-8.440 -6.840 -1.585
-5.531 -7.207 1.686
-6.337 -6.451 0.130
-4.756 -6.594 1.855
-5.121 -6.740 1.634
-7.066 -6.826 -0.227
-5.284 -6.675 1.407
-6.553 -8.498 1.954
-8.240 -7.034 -1.191
-8.084 -7.328 -0.750
-6.104 -6.875 0.765
-5.729 -6.876 1.150
-6.718 -7.146 0.436
-5.879 -6.872 0.996
-8.833 -6.863 -1.970
-7.452 -7.545 0.099
-6.507 -7.039 0.543
-4.748 -6.399 1.666
-6.520 -7.315 0.802
-4.920 -6.396 1.491
-9.653 -10.304 0.657
-9.673 -9.357 -0.303
-4.748 -6.401 1.670
-6.279 -6.873 0.588
-4.749 -6.419 1.686
-6.104 -6.875 0.764
-5.508 -7.163 1.671
-5.508 -7.163 1.671
-7.154 -7.400 0.253
-5.283 -6.675 1.408
-7.019 -6.923 -0.081
-5.063 -6.884 1.814
-5.063 -6.884 1.814
-8.806 -6.838 -1.968
-5.554 -6.921 1.381
-4.757 -6.605 1.864
-6.242 -7.330 1.092
-7.015 -7.329 0.325
-6.354 -7.147 0.796
-5.595 -7.190 1.606
-6.277 -6.941 0.674
-6.105 -6.875 0.763
-5.529 -7.209 1.692
-5.178 -7.098 1.933
-8.241 -7.034 -1.192
-7.296 -6.380 -0.899
-7.449 -7.460 0.018
-5.119 -6.740 1.635
-6.352 -7.148 0.799
-7.019 -6.923 -0.081
-5.284 -6.675 1.407
-6.240 -7.335 1.098
-7.449 -7.459 0.017
-6.558 -7.308 0.757
-5.284 -6.675 1.407
-5.732 -6.876 1.146
-4.748 -6.400 1.667
-8.806 -6.838 -1.968
-8.835 -6.863 -1.973
-7.019 -6.923 -0.081
-6.726 -6.946 0.237
-6.329 -6.433 0.120
-7.024 -6.808 -0.203
-6.105 -6.875 0.763
-5.283 -6.675 1.408
-6.518 -7.315 0.805
-5.284 -6.675 1.407
-4.758 -6.597 1.855
-5.141 -7.040 1.913
-6.634 -7.427 0.785
-4.759 -6.599 1.857
-5.284 -6.675 1.407
-5.937 -6.655 0.727
-8.117 -6.914 -1.189
-6.507 -7.040 0.545
-4.923 -6.395 1.487
-6.103 -6.876 0.766
-6.363 -7.209 0.859
-7.067 -6.825 -0.229
-8.440 -6.840 -1.585
-4.613 -6.656 2.054
-4.613 -6.656 2.054
-6.272 -7.145 0.877
-5.283 -6.674 1.407
-6.507 -7.040 0.545
-6.507 -7.040 0.545
-7.023 -6.808 -0.202
-5.529 -7.209 1.690
-4.758 -6.599 1.857
-5.284 -6.675 1.407
-8.188 -6.980 -1.193
-4.608 -6.677 2.080
-8.188 -6.980 -1.193
-5.280 -6.684 1.420
-8.121 -7.332 -0.783
-5.284 -6.674 1.406
-5.284 -6.674 1.406
-5.284 -6.674 1.406
-4.748 -6.394 1.662
-5.818 -6.879 1.064
-5.284 -6.674 1.406
-6.507 -7.040 0.544
-6.104 -6.875 0.765
-5.852 -7.013 1.163
-6.282 -7.719 1.451
-5.284 -6.674 1.407
-6.281 -7.723 1.455
-5.284 -6.674 1.406
-5.312 -6.761 1.457
-5.733 -6.817 1.090
-7.014 -7.330 0.326
-7.026 -6.807 -0.207
-5.284 -6.675 1.407
-8.084 -7.328 -0.750
-6.562 -7.310 0.755
-5.142 -7.040 1.912
-8.285 -7.477 -0.796
-8.240 -7.034 -1.191
-5.864 -7.017 1.155
-10.093 -9.311 -0.768
-4.613 -6.658 2.056
-6.275 -6.941 0.677
-7.787 -9.162 1.369
-5.314 -6.763 1.457
-8.093 -7.327 -0.751
-5.972 -7.637 1.682
-5.283 -6.674 1.406
-4.612 -6.655 2.054
-7.027 -6.806 -0.207
-5.596 -7.190 1.605
-6.518 -7.315 0.805
-8.077 -6.902 -1.161
-5.180 -7.091 1.923
-7.020 -6.924 -0.081
-6.279 -6.874 0.588
-6.182 -6.636 0.462
-5.284 -6.674 1.407
-4.613 -6.656 2.054
-6.172 -6.946 0.785
-6.239 -7.333 1.096
-5.283 -6.672 1.405
-5.284 -6.674 1.407
-5.063 -6.884 1.814
-6.303 -6.859 0.554
-6.709 -6.910 0.207
-6.275 -6.881 0.616
-5.063 -6.884 1.814
-5.063 -6.884 1.814
-6.742 -7.420 0.669
-6.558 -7.308 0.757
-4.229 -6.288 2.071
-7.027 -6.806 -0.208
-6.741 -7.420 0.671
-5.284 -6.675 1.407
-7.627 -7.335 -0.284
-5.729 -6.879 1.152
-9.666 -10.274 0.614
-5.733 -6.879 1.149
-9.052 -10.058 1.018
-7.015 -7.329 0.325
-4.641 -5.835 1.210
-6.508 -7.039 0.542
-6.492 -7.449 0.950
-6.550 -7.308 0.765
-6.362 -7.206 0.857
-7.068 -6.825 -0.230
-6.508 -7.039 0.542
-5.284 -6.675 1.407
-6.634 -7.427 0.785
-6.721 -7.537 0.826
-5.529 -7.209 1.691
-6.741 -7.420 0.671
-6.280 -6.873 0.587
-7.020 -6.924 -0.081
-6.353 -7.148 0.798
-5.530 -7.208 1.689
-6.507 -7.039 0.543
-5.800 -6.875 1.078
-6.932 -6.928 0.011
-5.731 -6.877 1.147
-6.507 -7.039 0.543
-6.507 -7.039 0.543
-5.879 -6.881 1.004
-6.524 -7.315 0.798
-6.742 -7.420 0.669
-6.558 -7.309 0.757
-5.058 -7.284 2.241
-6.377 -7.071 0.706
-7.869 -6.882 -0.974
-7.451 -7.548 0.104
-6.269 -6.944 0.685
-6.556 -7.309 0.760
-6.351 -7.149 0.801
-8.789 -6.966 -1.811
-6.492 -7.059 0.579
-8.071 -7.334 -0.732
-5.734 -6.885 1.154
-8.440 -6.840 -1.585
-5.143 -7.040 1.911
-6.543 -7.198 0.663
-9.657 -10.303 0.652
-6.168 -6.948 0.790
-5.736 -6.858 1.124
-6.507 -7.040 0.545
-5.565 -7.197 1.643
-5.531 -7.207 1.687
-6.507 -7.040 0.545
-6.553 -8.498 1.955
-9.660 -10.308 0.654
-5.061 -6.883 1.814
-6.331 -6.938 0.618
-5.736 -6.850 1.117
-5.735 -6.812 1.081
-5.805 -6.856 1.054
-5.805 -6.856 1.054
-7.323 -7.458 0.141
-4.756 -6.593 1.854
-8.114 -6.914 -1.186
-9.660 -10.308 0.654
-5.178 -7.093 1.929
-6.745 -7.421 0.668
-5.121 -6.738 1.632
-5.188 -6.526 1.342
-5.326 -6.757 1.439
-6.306 -6.861 0.553
-6.278 -6.875 0.591
-5.732 -6.857 1.127
-9.658 -10.309 0.657
-5.309 -6.755 1.454
-4.755 -6.593 1.855
-8.115 -10.240 2.125
-6.569 -7.311 0.749
-6.351 -7.149 0.801
-5.283 -6.674 1.407
-5.974 -7.219 1.248
-5.531 -7.207 1.686
-5.986 -7.343 1.365
-6.745 -7.421 0.668
-9.660 -10.306 0.652
-5.806 -6.852 1.049
-6.168 -6.949 0.791
-6.534 -7.317 0.790
-4.756 -6.593 1.854
-6.166 -6.949 0.793
-5.528 -7.450 1.908
-7.323 -7.459 0.142
-5.198 -7.091 1.905
-6.507 -7.040 0.545
-5.821 -6.859 1.041
-6.507 -7.040 0.545
-4.494 -6.456 1.978
-6.270 -6.944 0.685
-5.284 -6.674 1.406
-5.062 -6.884 1.814
-6.745 -7.421 0.668
-5.141 -7.046 1.920
-6.270 -6.944 0.685
-6.745 -7.421 0.668
-4.444 -6.463 2.034
-5.954 -7.400 1.445
-6.745 -7.421 0.668
-6.637 -7.427 0.782
-9.658 -10.317 0.667
-6.351 -7.149 0.801
-5.121 -6.735 1.629
-9.534 -10.606 1.083
-11.427 -10.667 -0.747
-10.105 -10.975 0.866
-10.828 -10.818 0.005
-10.106 -10.975 0.865
-9.642 -10.562 0.934
-10.666 -9.708 -0.946
-10.743 -10.403 -0.330
-10.143 -11.008 0.877
-9.346 -9.794 0.460
-11.679 -10.633 -1.047
-9.632 -10.548 0.928
-9.180 -10.286 1.119
-10.812 -10.303 -0.500
-10.337 -9.629 -0.696
-9.345 -9.795 0.462
-10.338 -9.627 -0.698
-11.641 -10.730 -0.894
-9.511 -10.336 0.838
-10.848 -10.309 -0.530
-8.900 -10.254 1.366
-9.116 -10.069 0.968
-11.013 -10.303 -0.700
-11.641 -10.730 -0.894
-10.847 -10.319 -0.518
-10.847 -10.319 -0.519
-9.613 -10.334 0.733
-8.888 -9.936 1.058
-8.945 -10.169 1.237
-11.643 -10.728 -0.897
-11.772 -10.732 -1.023
-8.580 -9.853 1.288
-12.048 -10.635 -1.414
-9.613 -10.334 0.733
-12.048 -10.635 -1.414
-9.987 -10.990 1.002
-10.812 -10.303 -0.500
-10.812 -10.303 -0.500
-8.880 -10.561 1.677
-10.337 -9.628 -0.696
-11.960 -10.721 -1.244
-9.388 -10.393 1.017
-10.848 -10.309 -0.530
-11.013 -10.303 -0.700
-8.944 -10.164 1.235
-10.848 -10.309 -0.530
-8.106 -9.282 1.187
-12.010 -10.757 -1.238
-11.550 -10.593 -0.973
-12.099 -10.533 -1.571
-9.538 -10.594 1.067
-10.337 -9.649 -0.675
-9.472 -10.721 1.257
-10.664 -9.706 -0.946
-12.208 -10.620 -1.577
-10.827 -10.310 -0.508
-11.751 -10.744 -0.989
-8.300 -9.543 1.253
-9.433 -10.669 1.246
-12.063 -10.597 -1.468
-10.824 -10.308 -0.506
-8.680 -10.129 1.464
-10.203 -10.428 0.233
-12.057 -10.633 -1.425
-10.860 -10.315 -0.536
-10.860 -10.315 -0.536
-11.130 -11.828 0.682
-10.327 -9.630 -0.685
-10.336 -9.357 -0.966
-11.641 -10.729 -0.895
-10.220 -10.596 0.391
-8.874 -10.449 1.588
-9.433 -10.666 1.243
-11.014 -10.303 -0.701
-11.130 -11.827 0.682
-8.354 -10.465 2.103
-10.855 -10.312 -0.534
-9.433 -10.671 1.248
-12.057 -10.633 -1.425
-10.860 -10.809 -0.036
-8.878 -10.089 1.226
-11.643 -10.728 -0.898
-8.951 -10.542 1.592
-10.847 -10.310 -0.529
-8.763 -9.935 1.183
-8.911 -10.490 1.591
-8.952 -10.542 1.591
-9.432 -10.668 1.247
-9.431 -10.654 1.233
-10.882 -10.310 -0.562
-8.719 -10.742 2.034
-13.798 -10.458 -3.337
-8.300 -10.640 2.351
-8.224 -9.517 1.302
-13.767 -10.484 -3.280
-9.090 -10.770 1.687
-8.444 -10.479 2.028
-13.638 -10.488 -3.148
-8.885 -9.901 1.025
-8.844 -10.393 1.562
-13.805 -10.422 -3.381
-8.851 -10.221 1.376
-8.885 -9.899 1.023
-10.972 -10.308 -0.655
-8.734 -10.488 1.761
-8.339 -9.462 1.133
-8.324 -10.462 2.131
-8.918 -10.494 1.589
-8.734 -10.518 1.791
-8.870 -9.788 0.923
-10.338 -9.629 -0.697
-8.818 -11.046 2.237
-10.338 -9.630 -0.696
-8.339 -9.462 1.133
-8.735 -10.487 1.759
-10.881 -10.309 -0.562
-8.857 -10.127 1.277
-9.135 -10.733 1.604
-10.848 -10.309 -0.530
-10.848 -10.309 -0.530
-11.641 -10.729 -0.894
-11.130 -11.827 0.682
-8.690 -10.764 2.085
-8.170 -9.859 1.704
-8.355 -10.192 1.842
-8.256 -9.272 1.028
-8.744 -10.539 1.807
-10.888 -10.313 -0.566
-8.355 -10.466 2.104
-9.117 -10.742 1.632
-9.702 -9.819 0.130
-10.386 -9.364 -1.009
-13.784 -10.476 -3.305
-13.606 -10.527 -3.076
-10.906 -10.320 -0.576
-13.767 -10.485 -3.279
-12.211 -10.619 -1.580
-7.489 -8.538 1.065
-8.264 -9.279 1.026
-11.131 -11.827 0.681
-9.341 -10.379 1.050
-9.185 -10.738 1.560
-8.902 -10.069 1.182
-8.857 -10.940 2.093
-8.976 -10.351 1.388
-8.377 -10.494 2.125
-12.054 -10.983 -1.054
-8.991 -9.947 0.966
-8.743 -10.532 1.801
-9.118 -10.741 1.630
-10.386 -9.363 -1.010
-9.118 -10.741 1.630
-10.386 -9.363 -1.010
-8.338 -9.920 1.596
-13.798 -10.458 -3.337
-13.606 -10.527 -3.076
-9.830 -9.919 0.101
-9.714 -9.817 0.115
-8.886 -10.488 1.616
-8.358 -9.911 1.567
-8.953 -10.543 1.591
-10.881 -10.310 -0.561
-8.284 -10.418 2.138
-8.379 -10.475 2.105
-8.734 -10.490 1.764
-9.208 -10.741 1.540
-9.158 -10.736 1.584
-9.741 -9.820 0.091
-12.008 -10.756 -1.236
-12.133 -10.630 -1.492
-13.599 -10.527 -3.069
-8.658 -10.303 1.657
-8.178 -9.870 1.706
-8.862 -10.419 1.571
-10.464 -10.789 0.310
-12.203 -10.623 -1.569
-8.250 -9.286 1.047
-13.588 -10.531 -3.054
-8.179 -9.871 1.707
-9.114 -10.773 1.666
-10.909 -10.333 -0.567
-11.934 -10.637 -1.299
-12.201 -10.621 -1.568
-9.437 -10.681 1.255
-8.950 -9.935 0.993
-8.695 -11.834 3.135
-8.751 -9.935 1.195
-8.856 -10.407 1.565
-9.062 -10.410 1.358
-8.901 -10.475 1.587
-8.878 -10.477 1.613
-8.695 -11.834 3.135
-8.237 -9.274 1.048
-10.886 -10.323 -0.554
-9.747 -9.820 0.085
-8.695 -11.834 3.135
-8.836 -10.800 1.979
-8.413 -10.475 2.055
-8.413 -10.475 2.056
-13.788 -10.458 -3.328
-9.163 -10.778 1.622
-10.381 -10.730 0.345
-8.137 -10.466 2.331
-12.201 -10.621 -1.570
-8.774 -10.694 1.934
-8.720 -10.329 1.622
-9.124 -10.758 1.641
-8.960 -10.385 1.438
-10.901 -10.329 -0.562
-8.659 -9.879 1.228
-9.437 -10.682 1.255
-8.900 -10.476 1.589
-13.788 -10.458 -3.327
-10.909 -10.333 -0.567
-12.201 -10.621 -1.568
-8.767 -9.869 1.110
-8.840 -11.014 2.157
-8.633 -10.790 2.168
-9.076 -9.431 0.368
-8.269 -9.861 1.607
-9.438 -10.682 1.255
-8.656 -9.787 1.137
-10.810 -10.807 0.012
-8.298 -10.449 2.161
-9.438 -10.683 1.255
-8.739 -10.508 1.777
-8.953 -10.399 1.456
-8.115 -10.486 2.372
-8.714 -10.746 2.042
-7.947 -9.338 1.406
-8.988 -10.357 1.382
-8.718 -10.115 1.412
-8.606 -10.677 2.074
-9.155 -10.737 1.589
-8.739 -10.508 1.777
-9.741 -9.822 0.094
-8.738 -10.509 1.779
-7.891 -9.676 1.798
-8.774 -10.298 1.535
-8.715 -9.926 1.218
-8.954 -10.400 1.457
-8.080 -9.297 1.228
-8.128 -10.463 2.332
-8.877 -10.477 1.614
-9.741 -9.821 0.092
-8.835 -10.788 1.967
-8.841 -10.177 1.349
-8.252 -9.857 1.621
-9.740 -9.822 0.094
-7.945 -10.665 2.734
-8.778 -10.526 1.757
-10.334 -10.340 0.013
-9.740 -9.823 0.095
-8.778 -10.525 1.756
-8.877 -10.487 1.624
-8.954 -10.400 1.456
-8.720 -10.118 1.413
-8.634 -10.025 1.391
-8.900 -10.476 1.589
-8.715 -9.911 1.204
-10.411 -9.366 -1.031
-8.264 -10.416 2.157
-8.877 -10.265 1.401
-8.898 -10.411 1.526
-8.670 -10.125 1.470
-8.695 -11.834 3.135
-9.105 -9.428 0.336
-8.898 -10.411 1.527
-8.778 -10.526 1.756
-7.557 -8.753 1.210
-8.243 -9.428 1.195
-8.835 -10.801 1.980
-8.619 -10.077 1.455
-8.764 -10.303 1.550
-8.954 -10.400 1.456
-8.848 -10.408 1.574
-8.875 -10.275 1.414
-8.321 -10.126 1.808
-8.887 -10.938 2.029
-8.744 -10.646 1.917
-8.712 -10.785 2.085
-7.428 -8.707 1.294
-8.688 -11.848 3.154
-8.778 -10.526 1.756
-8.778 -10.526 1.756
-8.781 -10.758 1.991
-8.321 -10.126 1.808
-8.739 -10.508 1.778
-8.997 -10.272 1.289
-8.677 -10.433 1.768
-8.898 -9.941 1.053
-8.264 -10.416 2.156
-8.414 -10.105 1.706
-9.007 -9.943 0.947
-8.739 -10.495 1.764
-8.227 -10.598 2.381
-8.745 -10.297 1.562
-8.951 -10.491 1.553
-9.007 -9.943 0.947
-8.757 -9.796 1.043
-8.705 -9.916 1.215
-8.739 -10.508 1.777
-8.264 -10.417 2.157
-8.742 -9.920 1.182
-8.714 -10.746 2.042
-8.883 -10.939 2.034
-8.739 -10.515 1.784
-7.429 -8.678 1.264
-8.834 -10.796 1.976
-8.128 -10.380 2.247
-8.391 -10.131 1.744
-8.739 -10.495 1.765
-8.264 -10.417 2.157
-8.834 -10.797 1.977
-8.778 -10.526 1.756
-6.954 -8.792 1.851
-8.322 -10.124 1.805
-8.743 -10.293 1.560
-8.714 -10.746 2.042
-8.778 -10.526 1.756
-7.978 -10.661 2.697
-8.960 -10.281 1.334
-8.887 -10.938 2.029
-9.204 -10.742 1.545
-7.946 -10.664 2.732
-8.318 -10.546 2.237
-9.765 -10.348 0.590
-8.835 -10.795 1.974
-6.954 -8.798 1.857
-8.725 -10.565 1.837
-8.951 -10.491 1.554
-8.721 -10.742 2.032
-8.997 -10.272 1.289
-8.289 -9.896 1.621
-8.749 -10.296 1.557
-8.778 -10.526 1.756
-8.757 -10.493 1.745
-8.326 -10.405 2.084
-9.089 -9.424 0.349
-8.778 -10.541 1.772
-8.326 -10.405 2.084
-8.778 -10.528 1.758
-7.978 -10.654 2.691
-8.710 -9.888 1.184
-8.997 -10.272 1.289
-9.765 -10.348 0.590
-8.762 -10.286 1.535
-8.258 -10.146 1.903
-8.695 -11.834 3.135
-8.905 -10.939 2.013
-8.610 -10.086 1.478
-8.788 -10.289 1.512
-8.798 -9.937 1.149
-8.947 -10.306 1.368
-8.322 -10.124 1.805
-8.778 -10.525 1.756
-8.326 -10.406 2.085
-8.778 -10.526 1.756
-8.311 -9.817 1.520
-8.857 -10.407 1.564
-8.727 -10.985 2.267
-8.946 -10.231 1.294
-8.760 -10.739 1.990
-9.005 -10.282 1.289
-8.694 -10.995 2.310
-8.727 -10.985 2.267
-8.778 -10.526 1.756
-8.719 -10.116 1.412
-8.741 -11.836 3.091
-8.778 -10.533 1.763
-9.765 -10.348 0.590
-8.326 -10.405 2.084
-8.723 -10.745 2.033
-6.739 -7.356 0.625
-8.326 -10.406 2.084
-6.954 -8.791 1.850
-8.749 -10.297 1.558
-8.778 -10.526 1.756
-8.273 -10.531 2.267
-8.325 -10.371 2.050
-8.326 -10.405 2.084
-8.960 -10.277 1.330
-8.877 -10.477 1.613
-8.778 -10.525 1.754
-8.974 -10.405 1.441
-7.355 -8.988 1.634
-8.079 -9.295 1.227
-8.960 -10.277 1.330
-8.638 -10.538 1.907
-8.795 -10.586 1.806
-8.508 -9.869 1.369
-8.907 -10.262 1.368
-8.816 -10.655 1.853
-8.719 -10.116 1.412
-7.948 -9.338 1.406
-8.714 -10.746 2.043
-8.924 -10.755 1.840
-8.468 -9.902 1.448
-8.778 -10.526 1.756
-8.714 -10.746 2.042
-8.890 -10.753 1.872
-8.694 -10.997 2.312
-8.757 -10.492 1.744
-8.370 -10.520 2.159
-8.778 -10.526 1.756
-6.954 -8.791 1.850
-8.741 -11.836 3.091
-7.978 -10.661 2.697
-8.694 -10.997 2.312
-8.758 -11.854 3.092
-8.753 -9.897 1.158
-8.946 -10.407 1.471
-8.968 -10.299 1.341
-8.615 -10.131 1.521
-8.946 -10.276 1.343
-7.939 -9.319 1.396
-8.683 -10.242 1.569
-13.646 -10.469 -3.174
-8.848 -11.057 2.198
-8.727 -10.724 2.011
-8.661 -10.854 2.205
-8.811 -10.672 1.875
-8.683 -11.127 2.455
-8.838 -10.401 1.578
-8.872 -10.421 1.562
-7.914 -9.807 1.907
-8.661 -10.854 2.205
-8.615 -10.861 2.258
-8.545 -10.989 2.453
-8.706 -10.513 1.822
-8.767 -10.729 1.976
-8.867 -10.412 1.561
-8.683 -11.126 2.454
-8.634 -9.951 1.325
-8.622 -10.856 2.246
-9.228 -10.384 1.163
-8.624 -10.261 1.648
-8.706 -10.715 2.023
-8.838 -10.401 1.578
-8.526 -10.895 2.378
-7.914 -9.818 1.919
-8.526 -10.895 2.378
-8.346 -10.841 2.508
-8.545 -10.989 2.453
-8.828 -10.356 1.544
-8.872 -10.400 1.543
-8.661 -10.854 2.205
-8.780 -10.389 1.625
-8.836 -10.409 1.589
-8.661 -10.854 2.205
-8.869 -10.769 1.910
-8.465 -10.898 2.442
-8.102 -10.438 2.353
-6.527 -7.349 0.830
-8.592 -10.990 2.406
-8.399 -9.782 1.398
-7.914 -9.786 1.887
-8.590 -10.877 2.297
-8.706 -10.513 1.822
-8.661 -10.854 2.205
-8.541 -10.755 2.220
-8.757 -10.785 2.044
-8.858 -10.456 1.611
-8.514 -10.843 2.342
-8.793 -10.533 1.757
-8.838 -10.401 1.578
-8.921 -11.966 3.043
-8.773 -10.658 1.899
-8.671 -10.295 1.636
-8.811 -10.672 1.875
-8.465 -10.898 2.442
-8.526 -10.895 2.378
-8.675 -10.305 1.642
-8.600 -10.979 2.383
-8.530 -10.765 2.240
-8.137 -10.846 2.725
-8.661 -10.854 2.205
-8.675 -10.306 1.642
-7.915 -9.387 1.488
-8.636 -10.989 2.361
-8.872 -10.402 1.546
-8.811 -10.673 1.875
-8.773 -10.657 1.898
-8.636 -10.989 2.361
-8.635 -11.002 2.376
-8.730 -10.512 1.797
-8.592 -10.990 2.406
-8.826 -11.056 2.220
-8.716 -11.115 2.410
-6.527 -7.350 0.830
-8.137 -10.846 2.725
-8.622 -10.856 2.246
-8.811 -10.673 1.875
-8.871 -10.402 1.547
-8.864 -10.409 1.562
-8.865 -10.416 1.567
-8.838 -10.401 1.578
-8.865 -10.397 1.547
-8.811 -10.672 1.875
-8.490 -10.844 2.364
-8.137 -10.846 2.725
-8.500 -10.781 2.285
-8.439 -9.813 1.392
-8.018 -10.806 2.798
-8.908 -10.418 1.523
-8.339 -10.655 2.331
-8.773 -10.658 1.899
-8.872 -10.401 1.545
-8.526 -10.895 2.378
-8.683 -11.127 2.455
-8.849 -10.385 1.550
-7.935 -9.794 1.873
-8.683 -11.127 2.455
-8.636 -10.990 2.362
-8.921 -11.967 3.043
-8.825 -10.943 2.134
-8.683 -11.126 2.454
-8.916 -10.418 1.515
-8.661 -10.854 2.206
-8.472 -10.185 1.725
-8.426 -10.184 1.760
-8.811 -10.690 1.893
-8.636 -10.993 2.365
-8.559 -10.869 2.322
-8.589 -9.976 1.401
-7.766 -9.729 1.980
-8.615 -10.861 2.258
-8.773 -10.658 1.899
-7.935 -9.795 1.874
-8.683 -11.127 2.455
-8.341 -11.063 2.735
-8.137 -10.846 2.725
-8.825 -10.893 2.085
-8.811 -10.673 1.875
-8.872 -10.401 1.545
-8.832 -10.766 1.944
-8.137 -10.846 2.725
-8.618 -11.024 2.413
-8.791 -10.397 1.586
-8.722 -10.510 1.804
-8.776 -10.950 2.190
-8.633 -10.995 2.369
-8.615 -10.861 2.258
-8.680 -10.157 1.489
-8.614 -10.900 2.296
-8.648 -10.294 1.658
-8.816 -10.454 1.653
-8.622 -10.856 2.246
-8.661 -10.854 2.205
-8.741 -10.510 1.785
-8.622 -10.856 2.246
-8.526 -10.895 2.378
-8.773 -10.658 1.899
-8.532 -10.898 2.379
-6.628 -7.355 0.735
-8.675 -10.304 1.641
-8.811 -10.672 1.875
-8.725 -11.189 2.477
-8.938 -11.965 3.024
-8.773 -10.658 1.899
-8.622 -10.856 2.246
-8.880 -10.420 1.553
-8.022 -10.865 2.859
-8.622 -10.856 2.246
-10.677 -9.560 -1.105
-8.257 -9.520 1.272
-8.257 -9.520 1.272
-9.092 -10.077 0.998
-8.257 -9.520 1.272
-9.772 -10.358 0.592
-9.092 -10.076 0.997
-8.257 -9.520 1.272
-10.837 -10.314 -0.514
-10.837 -10.314 -0.514
-10.280 -9.622 -0.646
-10.837 -10.314 -0.514
-9.090 -10.075 0.997
-8.775 -10.323 1.559
-10.837 -10.314 -0.514
-8.258 -9.520 1.272
-10.836 -10.314 -0.514
-8.258 -9.520 1.272
-8.258 -9.520 1.272
-8.665 -9.899 1.242
-10.836 -10.314 -0.514
-10.836 -10.314 -0.514
-9.090 -10.075 0.997
-9.090 -10.075 0.997
-8.692 -9.920 1.236
-9.090 -10.077 0.999
-9.101 -10.769 1.676
-8.258 -9.520 1.271
-10.310 -9.368 -0.929
-10.836 -10.314 -0.514
-8.478 -10.164 1.697
-8.185 -9.880 1.711
-8.804 -10.112 1.323
-9.679 -9.819 0.153
-8.845 -10.453 1.622
-8.258 -9.520 1.272
-10.870 -10.314 -0.546
-8.518 -10.770 2.256
-9.090 -10.075 0.997
-9.101 -10.769 1.676
-9.377 -10.751 1.379
-8.804 -10.112 1.323
-8.804 -10.112 1.323
-8.258 -9.519 1.271
-9.652 -9.808 0.169
-8.317 -10.366 2.045
-9.101 -10.770 1.676
-9.074 -10.069 1.008
-8.219 -9.279 1.072
-9.070 -10.069 1.012
-11.236 -10.257 -0.970
-9.685 -9.813 0.141
-8.468 -10.470 1.997
-8.811 -10.100 1.303
-10.870 -10.314 -0.546
-8.311 -9.521 1.220
-9.685 -9.817 0.144
-9.377 -10.751 1.379
-10.837 -10.314 -0.514
-9.377 -10.751 1.379
-10.285 -9.321 -0.954
-9.086 -10.073 1.000
-10.280 -9.620 -0.649
-9.659 -9.802 0.155
-9.686 -9.817 0.143
-10.316 -9.360 -0.942
-8.804 -10.112 1.323
-8.568 -10.137 1.584
-8.258 -9.519 1.271
-8.258 -9.519 1.271
-6.935 -6.929 0.007
-8.519 -10.771 2.256
-8.258 -9.520 1.271
-11.236 -10.257 -0.970
-10.870 -10.314 -0.546
-10.870 -10.314 -0.546
-8.804 -10.113 1.324
-10.706 -9.326 -1.367
-11.236 -10.257 -0.970
-8.869 -10.398 1.542
-8.468 -10.471 1.997
-8.804 -10.112 1.323
-8.228 -10.084 1.868
-8.081 -9.544 1.471
-10.342 -9.364 -0.964
-8.804 -10.112 1.323
-8.804 -10.112 1.323
-9.678 -9.817 0.151
-10.870 -10.314 -0.546
-9.262 -10.725 1.466
-6.934 -6.928 0.007
-6.934 -6.928 0.007
-8.591 -10.096 1.520
-8.765 -9.804 1.043
-10.131 -9.331 -0.787
-8.691 -9.799 1.113
-10.812 -10.303 -0.500
-9.120 -10.070 0.963
-8.296 -9.465 1.178
-8.195 -9.265 1.081
-8.297 -9.464 1.176
-8.772 -10.302 1.540
-10.734 -9.319 -1.403
-8.602 -10.094 1.506
-8.103 -9.490 1.396
-8.693 -9.798 1.111
-10.335 -10.333 0.004
-10.335 -10.333 0.004
-8.602 -10.094 1.507
-9.109 -10.063 0.967
-8.873 -10.133 1.266
-8.298 -9.464 1.176
-8.721 -10.301 1.591
-9.680 -9.806 0.138
-8.990 -10.741 1.756
-10.846 -10.304 -0.533
-8.870 -10.979 2.122
-8.991 -10.742 1.757
-9.333 -10.441 1.114
-8.602 -10.093 1.506
-9.109 -10.069 0.972
-8.250 -10.605 2.365
-10.297 -10.327 0.036
-8.522 -9.812 1.293
-5.378 -6.144 0.774
-8.297 -9.464 1.177
-8.297 -9.464 1.177
-8.601 -10.094 1.507
-9.109 -10.062 0.965
-10.297 -10.327 0.036
-10.370 -9.357 -1.000
-9.716 -9.812 0.108
-6.935 -6.928 0.007
-9.106 -10.062 0.969
-10.371 -9.357 -1.000
-8.602 -10.093 1.506
-10.371 -9.357 -1.000
-10.298 -10.327 0.035
-8.808 -10.306 1.509
-9.720 -9.380 -0.326
-10.735 -9.319 -1.403
-9.120 -10.069 0.961
-8.838 -10.069 1.245
-8.375 -6.834 -1.527
-8.103 -9.490 1.395
-8.227 -9.411 1.202
-8.871 -10.132 1.267
-9.103 -10.089 0.998
-9.104 -10.063 0.971
-8.324 -10.121 1.802
-7.452 -8.983 1.532
-8.941 -10.748 1.816
-10.847 -10.304 -0.534
-8.602 -10.094 1.507
-8.103 -9.490 1.396
-8.838 -10.069 1.246
-9.736 -9.381 -0.342
-8.297 -9.465 1.178
-9.621 -9.422 -0.184
-10.371 -9.358 -1.000
-8.893 -10.418 1.539
-8.297 -9.465 1.177
-8.297 -9.464 1.177
-8.803 -10.307 1.515
-8.189 -10.331 2.136
-8.250 -9.463 1.223
-8.191 -9.869 1.692
-8.693 -9.799 1.112
-10.371 -9.358 -1.000
-8.880 -10.465 1.599
-8.189 -10.331 2.136
-8.297 -9.465 1.177
-10.734 -9.319 -1.403
-9.719 -9.380 -0.325
-8.297 -9.465 1.178
-8.756 -10.305 1.560
-8.756 -10.305 1.560
-10.370 -9.357 -1.000
-10.370 -9.357 -1.000
-8.189 -10.331 2.136
-9.689 -9.801 0.124
-8.754 -10.067 1.327
-8.297 -9.464 1.176
-10.370 -9.357 -1.000
-8.574 -10.032 1.474
-10.370 -9.357 -1.000
-8.000 -9.285 1.295
-6.935 -6.928 0.007
-8.874 -10.144 1.276
-10.370 -9.357 -1.000
-7.992 -9.325 1.343
-8.838 -10.068 1.245
-6.920 -6.926 0.020
-8.000 -9.283 1.292
-7.453 -8.983 1.532
-9.711 -9.377 -0.321
-8.958 -10.415 1.468
-8.690 -9.801 1.115
-7.452 -8.985 1.535
-10.371 -9.357 -1.000
-8.154 -9.877 1.738
-10.298 -10.327 0.035
-8.838 -10.069 1.245
-8.879 -10.505 1.640
-8.602 -10.094 1.507
-8.007 -9.314 1.317
-8.375 -6.834 -1.527
-9.681 -9.802 0.133
-6.935 -6.927 0.006
-8.838 -10.069 1.245
-9.711 -9.377 -0.321
-8.817 -10.336 1.532
-10.371 -9.357 -1.000
-9.744 -9.383 -0.347
-6.919 -6.927 0.023
-8.373 -6.834 -1.525
-8.002 -9.352 1.365
-7.999 -9.284 1.295
-8.754 -10.067 1.328
-8.691 -9.798 1.112
-10.371 -9.358 -1.000
-8.601 -10.094 1.508
-7.065 -6.815 -0.237
-10.371 -9.357 -1.001
-8.754 -10.067 1.328
-8.298 -9.464 1.176
-7.454 -8.983 1.531
-10.847 -10.304 -0.534
-8.690 -9.799 1.114
-8.001 -9.285 1.294
-10.371 -9.357 -1.001
-10.371 -9.357 -1.001
-9.720 -9.380 -0.327
-9.720 -9.380 -0.327
-8.867 -10.467 1.613
-9.040 -9.416 0.390
-10.734 -9.319 -1.403
-10.141 -9.335 -0.792
-8.448 -9.813 1.368
-8.602 -10.094 1.507
-9.688 -9.798 0.123
-8.602 -10.094 1.507
-9.719 -9.380 -0.325
-8.875 -10.464 1.602
-8.602 -10.094 1.507
-8.014 -9.880 1.882
-8.297 -9.464 1.177
-8.297 -9.465 1.177
-8.686 -9.928 1.253
-9.719 -9.380 -0.325
-8.756 -10.304 1.559
-8.857 -10.478 1.633
-8.919 -10.403 1.495
-8.756 -10.305 1.559
-9.718 -9.379 -0.326
-8.796 -10.197 1.413
-10.135 -9.349 -0.774
-6.918 -6.922 0.017
-8.602 -10.094 1.507
-8.190 -10.331 2.135
-9.719 -9.380 -0.326
-7.382 -8.989 1.608
-8.947 -10.754 1.816
-10.327 -9.621 -0.694
-8.000 -9.287 1.297
-8.685 -9.928 1.253
-7.950 -9.311 1.371
-8.801 -10.404 1.617
-6.919 -6.927 0.022
-10.371 -9.357 -1.000
-9.714 -9.377 -0.324
-8.793 -10.401 1.621
-8.690 -9.799 1.114
-7.950 -9.313 1.373
-9.710 -10.341 0.638
-8.807 -9.932 1.135
-10.370 -9.357 -1.000
-9.040 -9.416 0.389
-8.947 -10.754 1.816
-8.602 -10.094 1.506
-7.950 -9.311 1.371
-8.297 -9.466 1.178
-9.010 -10.291 1.292
-8.688 -9.797 1.116
-8.157 -10.658 2.512
-10.735 -9.319 -1.403
-8.297 -9.465 1.177
-8.196 -9.265 1.081
-8.412 -9.900 1.502
-9.020 -9.412 0.406
-8.737 -10.294 1.567
-9.072 -10.049 0.989
-8.602 -10.093 1.506
-8.564 -10.112 1.563
-8.018 -9.488 1.478
-8.414 -9.900 1.501
-8.649 -10.114 1.481
-8.770 -10.843 2.088
-8.891 -10.278 1.400
-7.466 -8.985 1.522
-8.792 -10.401 1.623
-7.938 -10.683 2.759
-8.686 -9.927 1.251
-7.383 -8.984 1.603
-8.105 -10.557 2.453
-7.935 -9.341 1.422
-9.088 -10.138 1.061
-8.838 -10.069 1.246
-9.020 -9.412 0.405
-8.686 -9.927 1.251