-8.129 -6.906 -1.220
-7.583 -6.977 -0.605
-7.583 -6.977 -0.605
-8.224 -6.925 -1.296
-10.590 -7.148 -3.452
-8.248 -6.924 -1.320
-10.070 -7.212 -2.867
-7.615 -6.976 -0.637
-8.052 -6.990 -1.058
-8.248 -6.925 -1.320
-7.615 -6.976 -0.637
-8.248 -6.924 -1.320
-8.447 -7.126 -1.321
-8.248 -6.925 -1.320
-8.248 -6.924 -1.320
-8.248 -6.924 -1.320
-8.390 -7.141 -1.249
-7.616 -6.977 -0.637
-6.806 -6.571 -0.232
-11.024 -7.002 -4.030
-7.615 -6.977 -0.637
-11.024 -7.002 -4.030
-11.024 -7.002 -4.030
-7.615 -6.977 -0.637
-8.448 -7.126 -1.321
-7.615 -6.977 -0.637
-11.024 -7.002 -4.030
-11.024 -7.002 -4.030
-10.590 -7.147 -3.452
-9.003 -7.006 -1.993
-8.249 -6.925 -1.321
-7.510 -7.053 -0.453
-8.051 -6.991 -1.057
-8.051 -6.991 -1.057
-7.436 -6.808 -0.625
-8.389 -7.141 -1.248
-8.623 -7.179 -1.441
-10.591 -7.147 -3.453
-8.251 -6.699 -1.548
-8.251 -6.699 -1.548
-7.437 -6.808 -0.626
-6.737 -6.573 -0.162
-8.250 -6.925 -1.321
-8.051 -6.991 -1.057
-7.041 -6.766 -0.272
-7.437 -6.808 -0.626
-8.051 -6.991 -1.057
-10.591 -7.147 -3.453
-7.528 -7.061 -0.465
-6.683 -6.474 -0.206
-10.590 -7.147 -3.453
-11.024 -7.002 -4.031
-6.735 -6.574 -0.159
-8.175 -6.697 -1.474
-11.024 -7.002 -4.031
-7.851 -7.078 -0.769
-7.709 -7.078 -0.627
-8.051 -6.991 -1.057
-8.250 -6.699 -1.547
-8.051 -6.991 -1.057
-11.025 -7.002 -4.031
-8.389 -7.141 -1.248
-7.437 -6.808 -0.625
-8.448 -7.126 -1.321
-8.051 -6.991 -1.057
-8.623 -7.179 -1.441
-8.249 -6.925 -1.321
-8.448 -7.126 -1.321
-7.709 -7.078 -0.627
-7.709 -7.079 -0.627
-8.051 -6.991 -1.057
-8.623 -7.179 -1.441
-8.623 -7.179 -1.441
-8.623 -7.179 -1.441
-8.051 -6.991 -1.057
-7.709 -7.078 -0.627
-11.131 -6.960 -4.178
-8.249 -6.925 -1.320
-7.615 -6.977 -0.636
-8.446 -7.127 -1.320
-11.022 -7.003 -4.027
-8.249 -6.700 -1.546
-7.709 -7.078 -0.627
-8.222 -6.682 -1.537
-8.622 -7.179 -1.440
-8.416 -7.049 -1.364
-9.001 -7.006 -1.992
-7.436 -6.808 -0.625
-6.737 -6.573 -0.162
-8.051 -6.991 -1.057
-8.051 -6.991 -1.057
-6.687 -6.474 -0.210
-11.022 -7.003 -4.027
-7.556 -7.061 -0.493
-10.404 -7.127 -3.286
-8.446 -7.127 -1.320
-7.499 -7.054 -0.442
-7.499 -7.054 -0.442
-7.777 -7.012 -0.763
-8.249 -6.700 -1.546
-8.249 -6.700 -1.546
-7.599 -7.079 -0.517
-7.447 -6.914 -0.532
-7.536 -7.054 -0.479
-11.022 -7.003 -4.027
-8.174 -6.697 -1.473
-8.051 -6.991 -1.057
-8.249 -6.925 -1.321
-6.607 -6.469 -0.135
-6.738 -6.573 -0.162
-8.388 -7.141 -1.247
-7.536 -7.058 -0.475
-7.590 -6.963 -0.623
-7.709 -7.078 -0.627
-7.530 -7.062 -0.465
-7.850 -7.078 -0.768
-7.530 -7.062 -0.465
-7.778 -7.012 -0.763
-10.404 -7.127 -3.286
-11.022 -7.003 -4.027
-7.454 -6.807 -0.643
-7.709 -7.078 -0.627
-8.051 -6.991 -1.057
-7.530 -7.062 -0.465
-11.022 -7.003 -4.027
-8.191 -7.042 -1.147
-9.001 -7.006 -1.992
-7.527 -7.055 -0.468
-7.709 -7.078 -0.627
-8.249 -6.925 -1.321
-8.249 -6.700 -1.546
-7.670 -7.070 -0.598
-7.709 -7.078 -0.627
-6.848 -6.731 -0.115
-8.480 -7.041 -1.435
-7.696 -6.982 -0.712
-7.565 -7.061 -0.502
-7.565 -7.061 -0.502
-10.404 -7.127 -3.285
-7.454 -6.807 -0.643
-7.529 -7.062 -0.465
-7.594 -6.910 -0.682
-7.507 -7.055 -0.449
-7.566 -7.061 -0.503
-7.566 -7.061 -0.503
-7.626 -7.094 -0.529
-7.344 -6.747 -0.594
-8.388 -7.141 -1.246
-7.622 -6.912 -0.707
-7.696 -6.982 -0.712
-7.696 -6.982 -0.712
-11.022 -7.003 -4.027
-7.670 -7.070 -0.598
-7.709 -7.078 -0.627
-11.022 -7.003 -4.027
-7.460 -6.923 -0.535
-8.533 -7.177 -1.352
-10.071 -7.319 -2.761
-8.191 -7.042 -1.146
-7.670 -7.070 -0.598
-7.531 -7.062 -0.466
-10.587 -7.148 -3.448
-8.447 -7.126 -1.320
-10.042 -7.260 -2.791
-6.673 -6.571 -0.100
-6.720 -6.482 -0.236
-6.720 -6.482 -0.236
-7.455 -6.807 -0.644
-7.535 -7.054 -0.478
-8.250 -6.700 -1.546
-7.436 -6.808 -0.625
-6.737 -6.573 -0.162
-7.506 -7.055 -0.447
-7.529 -7.062 -0.464
-11.022 -7.003 -4.027
-10.404 -7.127 -3.286
-7.709 -7.078 -0.627
-10.404 -7.127 -3.286
-8.383 -7.143 -1.240
-7.454 -6.807 -0.643
-7.575 -6.889 -0.684
-8.191 -7.042 -1.146
-8.191 -7.042 -1.146
-8.700 -7.175 -1.522
-7.671 -7.067 -0.600
-8.622 -7.179 -1.440
-7.594 -6.910 -0.682
-7.293 -7.022 -0.268
-7.358 -7.038 -0.319
-8.249 -6.700 -1.546
-7.522 -7.056 -0.463
-7.522 -7.055 -0.463
-7.522 -7.055 -0.463
-8.635 -7.177 -1.454
-6.605 -6.470 -0.133
-7.559 -7.061 -0.495
-6.721 -6.482 -0.237
-6.721 -6.482 -0.237
-8.479 -7.041 -1.435
-7.533 -7.061 -0.470
-8.249 -6.925 -1.321
-8.480 -7.041 -1.435
-7.537 -7.058 -0.476
-7.501 -7.054 -0.444
-10.587 -7.148 -3.449
-8.192 -7.042 -1.147
-7.619 -6.912 -0.705
-7.537 -7.053 -0.480
-8.700 -7.175 -1.522
-10.405 -7.127 -3.287
-10.405 -7.127 -3.287
-8.051 -6.991 -1.057
-10.362 -7.146 -3.225
-6.622 -6.529 -0.090
-8.636 -7.177 -1.455
-7.286 -7.022 -0.261
-7.498 -7.056 -0.439
-7.528 -7.055 -0.470
-8.174 -6.697 -1.473
-10.587 -7.148 -3.449
-8.534 -7.177 -1.353
-7.354 -7.038 -0.315
-7.368 -6.747 -0.618
-7.354 -7.039 -0.314
-10.405 -7.127 -3.287
-7.526 -7.055 -0.467
-7.353 -7.039 -0.313
-10.405 -7.127 -3.287
-7.285 -7.022 -0.260
-7.526 -7.055 -0.467
-10.405 -7.127 -3.287
-8.422 -7.125 -1.298
-8.706 -7.174 -1.529
-10.370 -7.144 -3.235
-8.422 -7.048 -1.370
-7.501 -7.056 -0.442
-6.676 -6.571 -0.103
-10.412 -7.124 -3.297
-6.721 -6.482 -0.237
-10.412 -7.124 -3.297
-6.721 -6.482 -0.237
-7.286 -7.022 -0.261
-6.528 -6.467 -0.058
-10.048 -7.258 -2.800
-7.726 -7.079 -0.643
-6.687 -6.475 -0.210
-7.531 -7.062 -0.466
-7.372 -6.746 -0.623
-7.339 -6.748 -0.588
-7.244 -6.904 -0.338
-8.367 -7.131 -1.237
-6.670 -6.576 -0.092
-6.600 -6.475 -0.123
-8.653 -7.178 -1.471
-6.721 -6.489 -0.230
-10.296 -7.167 -3.137
-7.534 -7.056 -0.475
-6.889 -6.501 -0.386
-7.528 -7.066 -0.460
-7.689 -6.982 -0.705
-7.372 -6.746 -0.622
-10.146 -7.208 -2.947
-10.146 -7.208 -2.947
-7.612 -6.913 -0.696
-10.026 -7.261 -2.775
-7.501 -7.057 -0.441
-7.159 -6.424 -0.733
-7.284 -7.022 -0.258
-10.415 -7.122 -3.301
-10.415 -7.122 -3.301
-7.587 -6.977 -0.608
-6.724 -6.482 -0.240
-8.334 -7.129 -1.207
-8.334 -7.129 -1.207
-8.442 -7.179 -1.260
-7.340 -6.748 -0.589
-8.205 -6.702 -1.499
-6.674 -6.572 -0.100
-8.340 -7.127 -1.214
-7.287 -7.022 -0.262
-7.287 -7.022 -0.262
-7.666 -7.071 -0.593
-7.448 -6.914 -0.533
-10.337 -7.147 -3.198
-7.286 -7.022 -0.261
-7.339 -6.748 -0.588
-7.707 -7.079 -0.624
-6.724 -6.482 -0.240
-7.531 -7.063 -0.466
-10.294 -7.167 -3.135
-10.457 -7.102 -3.363
-7.666 -7.071 -0.593
-10.294 -7.167 -3.136
-10.416 -7.122 -3.302
-6.758 -6.477 -0.278
-6.720 -6.482 -0.236
-6.720 -6.482 -0.236
-6.619 -6.529 -0.088
-7.707 -7.079 -0.624
-10.146 -7.208 -2.947
-6.719 -6.482 -0.235
-7.519 -7.063 -0.454
-8.285 -7.133 -1.153
-6.722 -6.482 -0.237
-10.435 -7.131 -3.313
-7.339 -6.748 -0.588
-10.145 -7.208 -2.946
-10.456 -7.102 -3.362
-7.500 -7.055 -0.441
-6.720 -6.482 -0.236
-7.521 -7.063 -0.456
-7.706 -7.077 -0.626
-7.237 -7.825 0.588
-8.364 -7.052 -1.309
-10.026 -7.260 -2.775
-7.707 -7.079 -0.625
-7.254 -6.898 -0.354
-7.539 -7.053 -0.482
-8.334 -7.129 -1.207
-8.334 -7.129 -1.207
-8.583 -7.180 -1.399
-7.500 -7.056 -0.441
-7.355 -7.038 -0.315
-7.524 -7.062 -0.459
-10.146 -7.208 -2.948
-6.736 -6.574 -0.159
-10.436 -7.130 -3.314
-6.609 -6.763 0.157
-8.206 -6.702 -1.500
-6.719 -6.482 -0.235
-6.603 -6.568 -0.032
-10.436 -7.130 -3.314
-7.497 -7.056 -0.437
-10.436 -7.130 -3.314
-10.436 -7.130 -3.314
-7.666 -7.071 -0.593
-7.176 -6.924 -0.251
-7.532 -7.062 -0.467
-6.763 -6.478 -0.282
-10.295 -7.166 -3.136
-6.721 -6.482 -0.237
-10.295 -7.166 -3.136
-10.436 -7.130 -3.315
-6.609 -6.763 0.157
-7.497 -7.056 -0.437
-10.436 -7.130 -3.314
-7.366 -6.747 -0.616
-10.435 -7.130 -3.313
-7.521 -7.062 -0.457
-7.394 -7.085 -0.306
-8.404 -7.148 -1.256
-7.464 -6.922 -0.540
-7.104 -7.843 0.738
-6.612 -6.760 0.151
-10.436 -7.130 -3.314
-8.028 -6.991 -1.034
-7.322 -7.024 -0.295
-8.340 -7.127 -1.214
-7.233 -6.874 -0.358
-6.613 -6.759 0.149
-10.457 -7.102 -3.363
-7.531 -6.822 -0.706
-7.175 -6.925 -0.249
-6.267 -6.454 0.189
-7.253 -6.899 -0.352
-10.457 -7.102 -3.363
-7.666 -7.071 -0.593
-7.222 -7.857 0.632
-6.677 -6.570 -0.105
-6.531 -6.467 -0.061
-7.057 -6.882 -0.174
-7.250 -7.832 0.581
-6.677 -6.570 -0.104
-7.176 -6.924 -0.251
-7.176 -6.924 -0.251
-7.532 -7.062 -0.467
-6.642 -6.737 0.098
-11.138 -6.958 -4.188
-7.366 -6.747 -0.616
-7.725 -7.079 -0.643
-6.606 -6.567 -0.036
-7.531 -7.062 -0.466
-6.724 -6.482 -0.240
-6.708 -6.936 0.231
-10.352 -7.121 -3.239
-6.613 -6.761 0.152
-8.387 -7.123 -1.266
-7.499 -7.056 -0.439
-7.119 -7.841 0.722
-7.315 -7.024 -0.288
-7.315 -7.024 -0.288
-9.064 -7.080 -1.982
-10.489 -7.099 -3.399
-7.521 -7.062 -0.456
-7.110 -7.845 0.735
-10.488 -7.099 -3.398
-6.741 -6.947 0.209
-7.141 -6.732 -0.406
-7.110 -7.845 0.735
-7.168 -6.931 -0.235
-10.091 -7.236 -2.864
-8.251 -6.925 -1.323
-7.344 -6.747 -0.594
-8.258 -6.688 -1.566
-8.387 -7.123 -1.266
-6.982 -6.958 -0.021
-7.499 -7.056 -0.439
-7.369 -7.035 -0.332
-6.721 -6.482 -0.237
-7.315 -7.024 -0.288
-7.499 -7.056 -0.439
-7.242 -6.908 -0.332
-8.387 -7.123 -1.265
-8.705 -7.174 -1.528
-7.365 -7.038 -0.325
-7.368 -7.035 -0.332
-8.387 -7.123 -1.265
-8.421 -7.125 -1.297
-7.369 -7.035 -0.332
-10.529 -7.079 -3.459
-7.368 -7.035 -0.331
-6.611 -6.763 0.155
-6.622 -6.529 -0.090
-6.721 -6.482 -0.237
-8.242 -6.695 -1.543
-6.923 -6.924 0.002
-6.886 -6.972 0.089
-6.425 -6.534 0.112
-7.726 -7.079 -0.643
-7.241 -7.824 0.583
-7.204 -7.827 0.622
-7.175 -6.925 -0.250
-6.986 -6.943 -0.040
-8.893 -6.628 -2.261
-10.368 -7.144 -3.232
-10.046 -7.258 -2.797
-7.140 -6.732 -0.405
-6.720 -6.482 -0.236
-8.265 -7.041 -1.221
-6.617 -6.758 0.144
-7.366 -7.038 -0.325
-6.996 -6.906 -0.088
-6.616 -6.758 0.145
-7.523 -7.062 -0.459
-6.397 -7.068 0.673
-6.705 -6.953 0.251
-6.705 -6.953 0.251
-6.616 -6.758 0.145
-7.315 -7.024 -0.288
-7.122 -7.841 0.718
-10.368 -7.144 -3.232
-6.927 -6.920 -0.006
-6.613 -6.761 0.151
-6.675 -6.571 -0.102
-7.113 -7.844 0.730
-7.522 -7.062 -0.457
-10.506 -7.109 -3.406
-6.622 -6.529 -0.090
-8.397 -7.160 -1.233
-6.617 -6.758 0.144
-6.617 -6.758 0.144
-7.029 -6.901 -0.126
-7.523 -7.062 -0.459
-7.069 -6.768 -0.298
-6.259 -6.471 0.214
-6.259 -6.471 0.214
-6.474 -6.468 -0.004
-7.161 -7.839 0.678
-7.123 -7.840 0.717
-10.506 -7.109 -3.406
-6.611 -6.762 0.154
-6.546 -6.568 0.025
-6.426 -6.534 0.111
-7.521 -7.062 -0.456
-10.486 -7.100 -3.395
-6.546 -6.568 0.024
-8.386 -7.123 -1.264
-7.368 -7.035 -0.332
-7.119 -7.841 0.722
-8.256 -7.252 -1.003
-7.524 -7.062 -0.459
-7.524 -7.062 -0.459
-6.702 -6.951 0.252
-7.126 -7.838 0.711
-6.891 -6.963 0.075
-7.126 -7.838 0.711
-6.618 -6.756 0.141
-10.046 -7.258 -2.797
-6.888 -6.969 0.084
-7.139 -7.848 0.708
-6.643 -6.765 0.125
-8.254 -6.698 -1.552
-6.620 -6.529 -0.089
-6.886 -6.972 0.088
-6.255 -6.483 0.230
-8.436 -7.045 -1.388
-8.517 -7.175 -1.339
-10.423 -7.121 -3.311
-6.256 -6.474 0.220
-6.939 -6.912 -0.027
-7.672 -7.074 -0.596
-6.628 -6.533 -0.093
-8.221 -6.694 -1.523
-8.367 -7.131 -1.237
-6.207 -6.477 0.272
-8.404 -7.148 -1.256
-6.255 -6.472 0.219
-7.417 -7.070 -0.344
-7.529 -7.066 -0.461
-10.458 -7.103 -3.364
-6.512 -6.542 0.033
-7.135 -7.845 0.710
-6.390 -7.072 0.684
-7.097 -7.847 0.749
-6.720 -6.489 -0.229
-8.404 -6.892 -1.511
-8.199 -7.259 -0.940
-7.377 -7.041 -0.334
-10.437 -7.131 -3.315
-8.333 -7.128 -1.206
-6.721 -6.489 -0.230
-10.437 -7.131 -3.315
-6.573 -7.070 0.499
-7.136 -7.845 0.708
-6.205 -6.481 0.278
-6.815 -7.049 0.236
-10.437 -7.131 -3.315
-6.700 -6.958 0.261
-6.254 -6.475 0.223
-8.433 -7.045 -1.384
-8.433 -7.045 -1.384
-8.433 -7.045 -1.384
-10.437 -7.131 -3.315
-6.609 -6.763 0.157
-8.404 -7.148 -1.256
-6.569 -6.542 -0.024
-7.396 -7.087 -0.306
-8.442 -7.179 -1.259
-6.540 -6.571 0.033
-6.256 -6.470 0.216
-10.438 -7.130 -3.316
-6.703 -6.957 0.258
-8.333 -7.128 -1.206
-6.821 -7.045 0.228
-7.529 -7.066 -0.462
-6.569 -6.542 -0.024
-6.861 -6.936 0.076
-6.255 -6.471 0.217
-6.394 -7.067 0.676
-8.124 -7.253 -0.871
-10.296 -7.167 -3.138
-6.611 -6.762 0.154
-6.858 -6.939 0.082
-6.611 -6.762 0.154
-6.206 -6.480 0.276
-7.555 -7.075 -0.478
-6.639 -6.740 0.105
-6.893 -6.953 0.063
-6.392 -7.058 0.669
-6.639 -6.740 0.105
-6.708 -6.936 0.232
-7.231 -7.825 0.593
-7.537 -7.066 -0.469
-7.537 -7.066 -0.469
-6.931 -6.911 -0.020
-6.575 -6.541 -0.031
-7.194 -7.827 0.633
-6.724 -6.489 -0.233
-8.205 -6.702 -1.499
-6.252 -6.483 0.233
-8.333 -7.128 -1.206
-6.648 -6.757 0.112
-7.419 -7.069 -0.346
-6.924 -6.919 -0.004
-7.148 -7.840 0.691
-7.216 -7.044 -0.169
-6.207 -6.477 0.272
-6.540 -6.571 0.033
-6.592 -6.501 -0.089
-6.391 -7.067 0.679
-6.540 -6.571 0.033
-6.820 -7.046 0.228
-8.619 -7.176 -1.438
-7.240 -6.909 -0.328
-8.442 -7.179 -1.260
-7.530 -7.066 -0.462
-7.112 -7.841 0.728
-7.112 -7.841 0.728
-7.112 -7.841 0.728
-7.112 -7.841 0.728
-6.394 -7.067 0.676
-6.889 -6.964 0.078
-6.394 -7.067 0.676
-6.593 -6.501 -0.090
-6.649 -6.757 0.111
-7.241 -6.908 -0.330
-6.256 -6.470 0.216
-6.207 -6.476 0.271
-8.369 -7.049 -1.317
-10.438 -7.130 -3.316
-7.528 -7.066 -0.460
-7.098 -7.846 0.747
-6.644 -6.762 0.121
-6.644 -6.762 0.121
-6.187 -6.457 0.273
-6.904 -6.962 0.062
-6.540 -6.571 0.033
-7.063 -6.818 -0.241
-6.609 -6.763 0.157
-7.528 -7.066 -0.460
-7.136 -7.845 0.708
-7.098 -7.846 0.747
-7.098 -7.846 0.747
-6.592 -6.500 -0.089
-7.435 -6.923 -0.511
-7.416 -7.069 -0.344
-6.815 -7.049 0.237
-7.504 -7.057 -0.444
-6.540 -6.571 0.033
-6.999 -7.076 0.080
-7.136 -7.845 0.708
-6.855 -6.940 0.087
-7.528 -7.066 -0.460
-6.609 -6.763 0.157
-6.187 -6.457 0.273
-6.592 -6.500 -0.089
-8.225 -6.700 -1.522
-6.697 -6.967 0.274
-6.590 -6.500 -0.087
-6.590 -6.500 -0.087
-6.697 -6.967 0.274
-6.394 -7.077 0.685
-7.060 -6.821 -0.235
-7.118 -7.856 0.737
-6.424 -6.538 0.116
-6.699 -6.967 0.271
-6.539 -6.571 0.035
-6.635 -6.772 0.139
-6.918 -6.926 0.010
-8.214 -7.046 -1.165
-6.862 -6.935 0.074
-6.704 -6.953 0.252
-6.888 -6.964 0.078
-6.821 -7.045 0.227
-6.704 -6.953 0.252
-7.241 -6.908 -0.331
-6.889 -6.964 0.078
-6.702 -6.953 0.254
-6.615 -6.758 0.146
-6.185 -6.480 0.297
-6.428 -6.537 0.111
-7.001 -7.075 0.076
-6.428 -6.537 0.111
-7.151 -7.839 0.687
-7.113 -7.840 0.726
-6.376 -6.565 0.192
-6.886 -6.964 0.081
-8.197 -7.177 -1.017
-6.858 -6.938 0.081
-6.612 -6.761 0.153
-6.255 -6.473 0.220
-6.578 -7.067 0.492
-6.592 -6.500 -0.089
-6.971 -7.049 0.082
-7.105 -7.844 0.739
-8.555 -7.179 -1.372
-6.819 -7.046 0.230
-6.905 -6.960 0.058
-6.391 -7.068 0.680
-6.703 -6.955 0.254
-7.107 -7.843 0.735
-6.703 -6.955 0.254
-6.819 -7.046 0.230
-7.145 -7.840 0.695
-7.686 -7.085 -0.597
-6.979 -7.048 0.073
-6.217 -6.459 0.243
-6.724 -6.489 -0.233
-6.931 -6.910 -0.020
-6.888 -6.917 0.030
-6.244 -6.457 0.215
-6.596 -6.502 -0.092
-6.911 -6.915 0.005
-6.979 -7.047 0.072
-6.640 -6.739 0.102
-6.931 -6.910 -0.020
-8.335 -6.928 -1.403
-6.593 -6.501 -0.090
-6.704 -6.953 0.253
-6.569 -6.542 -0.024
-6.233 -6.475 0.243
-6.862 -6.936 0.076
-8.404 -6.892 -1.511
-10.499 -7.146 -3.361
-7.033 -7.074 0.043
-7.136 -7.845 0.708
-6.392 -7.070 0.681
-6.836 -7.048 0.215
-7.136 -7.845 0.708
-6.165 -6.458 0.296
-7.098 -7.846 0.747
-6.923 -6.921 -0.000
-6.609 -6.763 0.157
-8.509 -7.131 -1.378
-6.923 -6.921 -0.000
-6.855 -6.940 0.086
-8.404 -7.148 -1.257
-6.703 -6.955 0.254
-6.184 -6.482 0.300
-6.238 -6.450 0.215
-6.391 -7.068 0.679
-6.612 -6.760 0.151
-6.917 -6.920 0.005
-6.233 -6.476 0.245
-6.701 -6.955 0.257
-7.322 -7.025 -0.293
-6.647 -6.759 0.115
-6.621 -6.760 0.142
-6.647 -6.759 0.115
-8.138 -7.033 -1.103
-6.863 -6.935 0.074
-6.843 -7.045 0.205
-6.185 -6.480 0.297
-6.185 -6.480 0.297
-6.185 -6.480 0.297
-6.167 -6.454 0.290
-6.843 -7.044 0.205
-6.925 -6.919 -0.005
-7.144 -6.956 -0.185
-6.958 -6.922 -0.034
-6.649 -6.757 0.111
-8.367 -7.131 -1.238
-7.148 -7.840 0.691
-6.256 -6.470 0.217
-6.216 -6.451 0.237
-6.216 -6.451 0.237
-6.185 -6.480 0.298
-7.148 -7.840 0.691
-8.367 -7.131 -1.238
-6.577 -7.065 0.491
-6.917 -6.920 0.003
-7.110 -7.841 0.730
-8.338 -6.928 -1.406
-6.611 -6.761 0.153
-6.940 -6.910 -0.029
-6.236 -6.474 0.240
-6.900 -6.924 0.026
-6.219 -6.450 0.234
-6.978 -6.912 -0.065
-6.902 -6.964 0.064
-8.407 -7.157 -1.246
-7.113 -7.842 0.728
-6.906 -6.959 0.056
-6.837 -7.039 0.204
-6.169 -6.454 0.288
-6.187 -6.481 0.296
-6.650 -6.758 0.110
-6.191 -6.453 0.265
-6.891 -6.965 0.077
-6.859 -7.038 0.181
-6.241 -6.450 0.211
-6.980 -7.029 0.052
-6.625 -6.759 0.137
-6.431 -6.533 0.105
-6.874 -6.929 0.056
-6.942 -6.910 -0.031
-7.148 -7.841 0.693
-6.704 -6.953 0.252
-6.891 -6.965 0.077
-6.942 -6.909 -0.032
-6.906 -6.958 0.056
-6.980 -7.029 0.052
-6.616 -6.759 0.146
-6.942 -6.910 -0.031
-6.312 -6.458 0.149
-7.004 -7.058 0.057
-6.704 -6.953 0.252
-6.394 -7.068 0.676
-7.140 -7.842 0.702
-7.004 -7.058 0.056
-6.069 -6.512 0.447
-6.837 -7.039 0.204
-6.219 -6.451 0.235
-6.898 -6.926 0.029
-6.650 -6.758 0.110
-6.219 -6.451 0.235
-6.837 -7.039 0.205
-6.616 -6.759 0.146
-6.898 -6.926 0.029
-6.187 -6.481 0.296
-6.942 -6.910 -0.031
-6.942 -6.910 -0.031
-6.942 -6.910 -0.031
-6.837 -7.039 0.204
-6.187 -6.481 0.296
-6.625 -6.759 0.137
-8.359 -7.153 -1.202
-6.942 -6.910 -0.031
-8.475 -6.883 -1.590
-8.341 -7.127 -1.215
-6.617 -6.757 0.144
-6.187 -6.479 0.294
-6.704 -6.952 0.250
-8.628 -7.176 -1.449
-6.186 -6.481 0.296
-6.218 -6.451 0.235
-6.942 -6.910 -0.031
-8.341 -7.127 -1.215
-6.978 -6.912 -0.064
-6.860 -7.037 0.179
-6.900 -6.924 0.026
-6.860 -7.037 0.179
-6.749 -5.047 -1.699
-6.788 -5.030 -1.755
-6.839 -4.863 -1.973
-6.788 -5.030 -1.755
-6.128 -5.133 -1.001
-6.788 -5.030 -1.755
-6.819 -4.884 -1.932
-6.749 -5.047 -1.699
-6.839 -4.863 -1.973
-6.788 -5.030 -1.755
-6.788 -5.030 -1.755
-6.749 -5.047 -1.699
-6.749 -5.047 -1.699
-6.749 -5.047 -1.699
-6.749 -5.047 -1.699
-6.839 -4.863 -1.973
-6.788 -5.030 -1.755
-6.788 -5.030 -1.755
-6.788 -5.030 -1.755
-6.788 -5.030 -1.755
-7.327 -6.996 -0.328
-7.296 -7.019 -0.274
-7.332 -7.027 -0.305
-6.749 -5.047 -1.699
-7.327 -6.995 -0.329
-7.296 -7.019 -0.274
-6.788 -5.030 -1.754
-6.839 -4.863 -1.973
-6.102 -4.683 -1.415
-7.194 -7.023 -0.168
-6.789 -5.030 -1.756
-6.749 -5.047 -1.699
-6.788 -5.030 -1.755
-6.788 -5.030 -1.755
-6.102 -4.683 -1.415
-6.749 -5.047 -1.699
-6.839 -4.863 -1.973
-7.327 -6.989 -0.335
-7.307 -6.713 -0.591
-6.788 -5.030 -1.755
-7.327 -6.994 -0.330
-6.839 -4.863 -1.973
-6.084 -4.995 -1.090
-6.010 -4.581 -1.426
-6.839 -4.863 -1.973
-6.788 -5.030 -1.755
-6.788 -5.030 -1.755
-6.788 -5.030 -1.755
-5.549 -4.899 -0.647
-7.147 -6.730 -0.414
-6.027 -4.585 -1.439
-6.749 -5.047 -1.699
-6.788 -5.030 -1.755
-5.549 -4.899 -0.647
-6.839 -4.863 -1.973
-6.788 -5.030 -1.755
-6.096 -4.676 -1.417
-6.096 -4.676 -1.417
-6.010 -4.581 -1.426
-6.788 -5.030 -1.755
-6.128 -5.133 -1.001
-7.476 -7.006 -0.469
-6.010 -4.581 -1.426
-6.010 -4.581 -1.426
-6.102 -4.683 -1.415
-6.128 -5.133 -1.001
-6.019 -4.994 -1.026
-6.086 -4.679 -1.403
-6.081 -4.673 -1.405
-6.011 -4.581 -1.426
-6.081 -4.673 -1.405
-6.788 -5.030 -1.755
-7.202 -7.022 -0.178
-6.789 -5.030 -1.756
-6.789 -5.030 -1.756
-7.039 -6.874 -0.164
-6.788 -5.030 -1.754
-7.476 -7.006 -0.469
-6.033 -4.590 -1.439
-7.297 -7.019 -0.274
-6.839 -4.863 -1.973
-5.975 -4.772 -1.201
-7.476 -7.006 -0.469
-7.192 -7.023 -0.167
-7.476 -7.006 -0.469
-6.773 -4.862 -1.908
-7.332 -7.027 -0.305
-6.788 -5.030 -1.755
-6.090 -4.999 -1.092
-6.839 -4.863 -1.973
-6.033 -4.590 -1.439
-7.363 -7.037 -0.325
-7.476 -7.006 -0.469
-7.147 -6.730 -0.414
-6.027 -4.585 -1.439
-6.027 -4.585 -1.439
-6.013 -4.991 -1.023
-6.788 -5.030 -1.755
-7.202 -7.022 -0.178
-7.476 -7.006 -0.469
-6.060 -5.168 -0.898
-7.476 -7.006 -0.469
-7.307 -6.713 -0.591
-7.307 -6.713 -0.591
-6.839 -4.863 -1.973
-6.027 -4.585 -1.439
-7.148 -6.730 -0.415
-7.148 -6.730 -0.415
-7.194 -7.023 -0.169
-6.129 -5.132 -1.002
-6.789 -5.030 -1.756
-6.789 -5.030 -1.756
-7.307 -6.713 -0.591
-7.361 -7.036 -0.324
-7.476 -7.006 -0.469
-7.307 -6.713 -0.591
-6.102 -4.683 -1.415
-6.719 -6.567 -0.150
-7.307 -6.713 -0.591
-7.307 -6.713 -0.591
-7.202 -7.022 -0.178
-6.028 -4.585 -1.439
-7.476 -7.006 -0.469
-5.634 -4.743 -0.889
-6.019 -4.994 -1.025
-7.307 -6.713 -0.591
-6.011 -4.581 -1.426
-7.362 -7.036 -0.324
-7.307 -6.713 -0.591
-7.476 -7.006 -0.469
-7.476 -7.006 -0.469
-7.476 -7.006 -0.469
-6.788 -5.030 -1.755
-5.549 -4.899 -0.647
-6.071 -4.780 -1.288
-6.788 -5.030 -1.755
-6.071 -4.780 -1.288
-6.788 -5.030 -1.755
-7.307 -6.713 -0.591
-6.096 -4.676 -1.417
-7.476 -7.006 -0.469
-7.307 -6.713 -0.591
-6.128 -5.133 -1.001
-7.476 -7.006 -0.469
-7.307 -6.713 -0.591
-6.081 -4.673 -1.404
-6.081 -4.673 -1.404
-6.081 -4.673 -1.404
-7.476 -7.006 -0.469
-7.476 -7.006 -0.469
-7.476 -7.006 -0.469
-6.080 -4.673 -1.404
-7.202 -7.022 -0.178
-6.840 -4.863 -1.974
-7.476 -7.006 -0.469
-7.476 -7.006 -0.469
-6.839 -4.863 -1.973
-7.476 -7.006 -0.469
-7.476 -7.006 -0.469
-6.033 -4.590 -1.439
-6.096 -4.676 -1.417
-7.148 -6.730 -0.415
-6.010 -4.581 -1.425
-7.327 -6.993 -0.331
-7.147 -6.730 -0.414
-6.650 -6.461 -0.188
-6.839 -4.863 -1.973
-6.839 -4.863 -1.973
-7.476 -7.006 -0.469
-7.057 -7.011 -0.044
-6.084 -4.680 -1.401
-7.476 -7.006 -0.469
-6.128 -5.132 -1.001
-7.476 -7.006 -0.469
-7.476 -7.006 -0.469
-6.085 -4.680 -1.402
-6.788 -5.030 -1.755
-7.345 -7.025 -0.319
-7.471 -7.007 -0.463
-6.788 -5.030 -1.755
-7.305 -6.713 -0.588
-6.011 -4.581 -1.426
-7.198 -7.023 -0.173
-7.359 -7.038 -0.320
-7.359 -7.038 -0.320
-6.788 -5.030 -1.754
-6.102 -4.683 -1.416
-6.102 -4.683 -1.416
-7.146 -6.730 -0.413
-5.549 -4.899 -0.647
-6.648 -6.463 -0.183
-6.818 -4.884 -1.932
-5.264 -4.366 -0.895
-7.305 -6.713 -0.588
-6.102 -4.683 -1.416
-6.847 -6.463 -0.381
-5.480 -4.559 -0.919
-4.771 -4.585 -0.183
-6.788 -5.030 -1.754
-5.549 -4.899 -0.647
-6.087 -4.679 -1.404
-5.549 -4.899 -0.647
-5.634 -4.735 -0.897
-6.097 -4.676 -1.417
-5.577 -5.133 -0.441
-5.577 -5.133 -0.441
-6.081 -4.673 -1.405
-6.788 -5.030 -1.755
-6.818 -4.884 -1.932
-5.480 -4.559 -0.919
-6.788 -5.030 -1.754
-5.634 -4.735 -0.897
-6.102 -4.683 -1.416
-6.102 -4.683 -1.416
-5.634 -4.736 -0.896
-6.097 -4.676 -1.417
-7.473 -7.007 -0.465
-6.788 -5.030 -1.755
-7.198 -7.023 -0.173
-5.548 -4.899 -0.646
-7.198 -7.023 -0.173
-5.625 -4.740 -0.884
-6.818 -4.884 -1.932
-6.818 -4.884 -1.932
-6.102 -4.683 -1.416
-6.081 -4.673 -1.405
-6.011 -4.581 -1.427
-7.473 -7.007 -0.465
-5.481 -4.561 -0.918
-6.818 -4.884 -1.932
-6.818 -4.884 -1.932
-6.028 -4.585 -1.439
-6.011 -4.581 -1.426
-6.081 -4.673 -1.405
-6.084 -4.995 -1.090
-7.473 -7.007 -0.465
-6.128 -5.133 -1.001
-6.847 -6.463 -0.381
-6.788 -5.030 -1.754
-6.102 -4.683 -1.416
-7.473 -7.007 -0.465
-5.320 -4.605 -0.711
-6.080 -4.673 -1.404
-6.788 -5.030 -1.755
-6.090 -4.998 -1.093
-6.081 -4.673 -1.405
-6.084 -4.995 -1.090
-7.305 -6.713 -0.588
-7.323 -6.995 -0.326
-5.549 -4.899 -0.647
-6.013 -4.575 -1.434
-6.051 -4.777 -1.271
-6.818 -4.884 -1.932
-6.818 -4.884 -1.932
-6.839 -4.863 -1.973
-7.198 -7.023 -0.173
-6.010 -4.581 -1.425
-6.010 -4.581 -1.425
-5.976 -4.772 -1.202
-5.341 -4.496 -0.842
-6.052 -4.777 -1.272
-5.481 -4.559 -0.919
-5.341 -4.496 -0.842
-6.839 -4.863 -1.974
-6.097 -4.676 -1.418
-6.789 -5.030 -1.756
-7.305 -6.713 -0.588
-5.549 -4.899 -0.647
-5.634 -4.736 -0.896
-6.071 -4.780 -1.288
-6.071 -4.780 -1.288
-5.633 -4.736 -0.895
-6.016 -4.586 -1.426
-5.341 -4.496 -0.842
-6.839 -4.863 -1.973
-6.014 -4.575 -1.435
-5.634 -4.743 -0.890
-5.549 -4.899 -0.647
-6.097 -4.676 -1.417
-5.634 -4.736 -0.896
-6.839 -4.863 -1.973
-5.481 -4.559 -0.920
-6.081 -4.673 -1.405
-6.749 -5.047 -1.698
-6.014 -4.575 -1.435
-7.329 -7.028 -0.301
-6.018 -4.994 -1.025
-6.090 -4.998 -1.092
-6.071 -4.780 -1.288
-6.749 -5.047 -1.698
-5.634 -4.736 -0.896
-7.015 -7.070 0.058
-6.839 -4.863 -1.973
-7.473 -7.007 -0.465
-6.090 -4.998 -1.093
-6.051 -4.777 -1.271
-6.090 -4.998 -1.093
-6.081 -4.673 -1.405
-5.626 -4.739 -0.885
-6.097 -4.676 -1.417
-6.011 -4.581 -1.426
-7.323 -6.994 -0.327
-6.097 -4.676 -1.417
-6.051 -4.777 -1.271
-6.788 -5.030 -1.754
-5.634 -4.735 -0.897
-5.630 -5.154 -0.473
-7.054 -7.012 -0.039
-5.556 -4.900 -0.652
-7.473 -7.007 -0.465
-6.051 -4.777 -1.271
-6.839 -4.863 -1.973
-6.839 -4.863 -1.973
-6.071 -4.780 -1.288
-6.080 -4.673 -1.404
-6.018 -4.994 -1.025
-6.081 -4.673 -1.405
-7.473 -7.007 -0.465
-5.549 -4.899 -0.647
-6.128 -5.133 -1.001
-6.670 -4.987 -1.679
-6.071 -4.780 -1.288
-5.633 -4.736 -0.895
-6.028 -4.585 -1.439
-6.012 -4.991 -1.022
-6.102 -4.683 -1.416
-5.481 -4.559 -0.920
-5.549 -4.899 -0.647
-7.329 -7.028 -0.301
-6.028 -4.585 -1.440
-6.071 -4.780 -1.288
-6.090 -4.998 -1.092
-6.084 -4.995 -1.090
-5.634 -4.736 -0.896
-6.011 -4.581 -1.426
-5.039 -4.655 -0.385
-6.840 -4.863 -1.975
-6.097 -4.676 -1.418
-5.549 -4.899 -0.647
-6.840 -4.863 -1.975
-6.097 -4.676 -1.418
-6.787 -5.025 -1.758
-7.355 -7.037 -0.317
-5.977 -4.772 -1.202
-5.997 -4.775 -1.220
-6.011 -4.581 -1.426
-5.997 -4.775 -1.220
-6.130 -5.133 -1.002
-5.481 -4.559 -0.920
-7.473 -7.007 -0.465
-7.359 -7.038 -0.320
-6.098 -4.676 -1.418
-5.321 -4.605 -0.712
-7.146 -6.730 -0.413
-6.774 -4.862 -1.909
-6.073 -4.780 -1.290
-6.840 -4.863 -1.975
-6.092 -4.999 -1.094
-5.977 -4.772 -1.202
-6.419 -6.525 0.109
-7.356 -7.037 -0.318
-7.356 -7.037 -0.318
-6.840 -4.863 -1.975
-6.790 -5.030 -1.756
-6.082 -4.672 -1.406
-7.473 -7.007 -0.465
-6.841 -4.863 -1.975
-6.087 -4.679 -1.404
-6.788 -4.840 -1.945
-4.983 -5.027 0.041
-6.787 -5.025 -1.758
-7.305 -6.713 -0.589
-6.790 -5.030 -1.756
-7.473 -7.007 -0.465
-7.473 -7.007 -0.465
-6.841 -4.863 -1.975
-6.014 -4.575 -1.436
-6.081 -4.673 -1.405
-5.772 -5.405 -0.365
-5.634 -4.736 -0.896
-6.053 -4.777 -1.273
-6.841 -4.863 -1.975
-6.810 -5.030 -1.777
-6.034 -4.590 -1.441
-6.841 -4.863 -1.975
-5.336 -4.493 -0.840
-6.841 -4.863 -1.975
-5.634 -4.736 -0.896
-6.029 -4.585 -1.440
-6.029 -4.585 -1.440
-6.014 -4.575 -1.436
-6.014 -4.575 -1.436
-6.790 -5.030 -1.756
-6.841 -4.863 -1.975
-6.790 -5.030 -1.756
-5.997 -4.775 -1.220
-6.011 -4.581 -1.426
-6.028 -4.585 -1.440
-6.028 -4.585 -1.440
-7.191 -7.023 -0.164
-5.633 -4.736 -0.895
-5.997 -4.775 -1.220
-7.143 -6.730 -0.410
-6.028 -4.585 -1.440
-6.787 -4.841 -1.944
-7.305 -6.713 -0.589
-6.020 -4.994 -1.026
-6.820 -4.884 -1.934
-6.011 -4.581 -1.427
-5.328 -4.607 -0.718
-5.578 -5.134 -0.441
-7.144 -6.730 -0.411
-5.578 -5.134 -0.441
-6.014 -4.575 -1.436
-7.190 -7.023 -0.164
-7.359 -7.038 -0.321
-6.085 -5.176 -0.914
-7.199 -7.051 -0.147
-7.141 -6.731 -0.407
-5.266 -4.366 -0.897
-4.735 -4.855 0.120
-6.020 -4.994 -1.026
-5.498 -4.564 -0.932
-5.977 -4.772 -1.203
-6.001 -4.584 -1.413
-6.001 -4.584 -1.413
-5.545 -4.900 -0.641
-6.808 -5.025 -1.780
-7.216 -7.050 -0.165
-6.856 -4.857 -1.997
-5.551 -4.898 -0.650
-5.774 -5.405 -0.367
-7.219 -7.050 -0.168
-5.774 -5.405 -0.367
-7.347 -7.025 -0.321
-6.789 -4.856 -1.930
-7.355 -7.037 -0.317
-5.977 -4.772 -1.203
-5.156 -4.612 -0.540
-5.634 -4.736 -0.896
-6.840 -4.863 -1.975
-6.840 -4.863 -1.975
-7.199 -7.052 -0.147
-7.355 -7.037 -0.317
-6.103 -4.782 -1.318
-6.784 -5.026 -1.755
-6.081 -4.673 -1.404
-7.203 -7.052 -0.150
-7.330 -7.028 -0.301
-6.840 -4.863 -1.975
-6.014 -4.575 -1.435
-5.772 -5.405 -0.365
-5.976 -4.772 -1.201
-6.097 -4.676 -1.418
-4.726 -4.859 0.133
-7.146 -6.730 -0.413
-5.328 -4.607 -0.717
-5.549 -4.899 -0.647
-6.081 -4.673 -1.404
-7.190 -7.023 -0.164
-5.224 -4.363 -0.858
-5.268 -4.746 -0.518
-7.357 -7.037 -0.319
-6.772 -4.863 -1.907
-7.355 -7.037 -0.317
-7.141 -6.731 -0.407
-4.545 -4.595 0.053
-4.838 -4.958 0.124
-4.577 -4.633 0.057
-7.002 -7.046 0.048
-6.014 -4.575 -1.435
-5.659 -5.158 -0.498
-5.659 -5.158 -0.498
-5.977 -4.771 -1.203
-4.738 -4.854 0.116
-7.019 -7.014 -0.002
-7.201 -7.052 -0.148
-4.738 -4.854 0.116
-6.014 -4.575 -1.435
-6.790 -5.030 -1.756
-7.142 -6.730 -0.408
-6.787 -4.841 -1.944
-7.355 -7.037 -0.317
-5.578 -5.134 -0.441
-6.103 -4.782 -1.318
-7.186 -7.024 -0.159
-6.079 -4.673 -1.403
-6.029 -4.585 -1.441
-6.775 -4.861 -1.911
-4.838 -4.958 0.124
-7.018 -7.014 -0.001
-7.018 -7.014 -0.001
-6.013 -4.575 -1.434
-6.016 -4.586 -1.426
-5.549 -4.899 -0.646
-6.054 -4.777 -1.274
-5.557 -4.900 -0.653
-7.359 -7.038 -0.321
-5.657 -5.149 -0.506
-6.092 -4.999 -1.094
-7.201 -7.052 -0.148
-7.186 -7.024 -0.160
-6.770 -4.864 -1.904
-7.200 -7.051 -0.147
-6.081 -4.673 -1.405
-6.098 -4.676 -1.418
-6.841 -4.863 -1.976
-7.473 -7.007 -0.465
-7.473 -7.007 -0.465
-4.326 -4.588 0.265
-5.659 -5.158 -0.498
-6.840 -4.863 -1.975
-4.328 -4.587 0.261
-6.840 -4.863 -1.975
-6.103 -4.782 -1.318
-6.808 -5.032 -1.773
-7.355 -7.037 -0.317
-4.741 -4.852 0.111
-7.355 -7.037 -0.317
-6.783 -5.026 -1.754
-4.838 -4.958 0.124
-7.199 -7.051 -0.146
-6.773 -4.862 -1.908
-6.797 -4.868 -1.926
-6.103 -4.782 -1.318
-6.097 -4.676 -1.418
-6.012 -4.581 -1.427
-6.774 -4.861 -1.910
-6.014 -4.575 -1.436
-5.657 -5.149 -0.505
-4.327 -4.588 0.263
-7.021 -7.014 -0.004
-6.053 -4.777 -1.273
-7.014 -7.069 0.057
-6.081 -4.673 -1.405
-7.146 -6.730 -0.412
-6.785 -5.025 -1.756
-6.085 -5.176 -0.914
-4.742 -4.852 0.110
-6.841 -4.863 -1.975
-5.657 -5.149 -0.506
-7.144 -6.730 -0.411
-6.103 -4.782 -1.318
-6.097 -4.676 -1.418
-7.146 -6.730 -0.413
-4.834 -4.960 0.129
-4.834 -4.960 0.129
-4.473 -4.672 0.203
-5.320 -4.606 -0.711
-6.092 -4.999 -1.094
-6.126 -5.121 -1.011
-6.103 -4.782 -1.318
-4.850 -4.959 0.113
-4.850 -4.959 0.113
-6.028 -4.585 -1.440
-6.103 -4.782 -1.318
-6.773 -4.862 -1.908
-4.838 -4.958 0.124
-7.125 -7.028 -0.094
-4.851 -4.959 0.110
-6.091 -4.674 -1.414
-6.053 -4.777 -1.273
-5.226 -4.362 -0.860
-6.028 -4.585 -1.440
-7.360 -7.038 -0.321
-4.473 -4.673 0.203
-4.837 -4.844 0.007
-7.204 -7.052 -0.150
-4.472 -4.676 0.207
-4.726 -4.859 0.134
-7.204 -7.052 -0.150
-5.976 -4.772 -1.202
-6.028 -4.585 -1.440
-6.787 -4.841 -1.944
-6.081 -4.673 -1.405
-6.899 -7.007 0.111
-6.097 -4.676 -1.418
-6.092 -4.999 -1.094
-7.201 -7.052 -0.148
-5.269 -4.746 -0.520
-5.481 -4.561 -0.918
-5.249 -4.989 -0.262
-4.834 -4.960 0.129
-6.010 -4.581 -1.425
-4.473 -4.673 0.204
-4.473 -4.672 0.203
-6.312 -6.471 0.161
-4.473 -4.673 0.204
-6.053 -4.777 -1.273
-6.081 -4.673 -1.405
-4.848 -4.960 0.115
-4.022 -4.474 0.455
-5.632 -5.145 -0.485
-7.143 -6.730 -0.410
-6.549 -6.568 0.022
-6.592 -6.492 -0.098
-6.592 -6.492 -0.098
-6.592 -6.492 -0.098
-6.549 -6.568 0.022
-6.475 -6.468 -0.005
-6.592 -6.492 -0.098
-6.466 -6.533 0.070
-6.466 -6.534 0.071
-6.475 -6.468 -0.005
-6.425 -6.563 0.141
-7.188 -7.023 -0.162
-6.592 -6.491 -0.099
-6.592 -6.491 -0.099
-6.592 -6.491 -0.099
-6.550 -6.568 0.021
-6.550 -6.568 0.021
-6.592 -6.492 -0.099
-6.592 -6.492 -0.098
-7.188 -7.023 -0.162
-6.592 -6.492 -0.099
-6.592 -6.492 -0.099
-6.592 -6.491 -0.099
-6.592 -6.492 -0.099
-6.476 -6.468 -0.006
-7.295 -7.019 -0.272
-6.851 -6.726 -0.123
-6.851 -6.726 -0.123
-6.592 -6.492 -0.099
-7.295 -7.019 -0.272
-7.295 -7.019 -0.272
-6.592 -6.492 -0.098