-13.064 -13.451 0.423
-19.153 -12.624 -6.617
-19.153 -12.624 -6.617
-12.622 -13.207 0.599
-13.862 -13.300 -0.561
-17.761 -13.202 -4.595
-13.825 -13.281 -0.542
-14.163 -13.324 -0.833
-19.152 -12.625 -6.616
-19.474 -12.962 -6.548
-12.992 -13.521 0.564
-13.013 -13.523 0.545
-10.928 -11.689 0.777
-12.992 -13.521 0.564
-12.957 -13.543 0.620
-10.936 -11.744 0.822
-13.056 -13.612 0.556
-15.615 -13.346 -2.372
-12.638 -13.210 0.586
-13.806 -13.283 -0.521
-12.979 -13.525 0.581
-19.341 -12.972 -6.405
-12.957 -13.543 0.619
-12.957 -13.543 0.619
-13.684 -13.333 -0.350
-12.522 -14.104 1.432
-13.014 -13.523 0.543
-17.762 -13.202 -4.596
-12.995 -13.521 0.561
-19.341 -12.972 -6.406
-19.154 -12.624 -6.618
-12.942 -13.543 0.634
-12.977 -13.521 0.578
-13.256 -13.384 0.122
-12.942 -13.543 0.634
-13.256 -13.384 0.122
-12.155 -11.786 -0.352
-15.617 -13.347 -2.373
-19.343 -12.973 -6.406
-13.282 -13.378 0.091
-19.343 -12.973 -6.406
-12.586 -11.846 -0.721
-13.839 -13.270 -0.567
-19.344 -12.973 -6.408
-13.853 -14.579 0.719
-13.881 -13.286 -0.592
-15.524 -13.464 -2.147
-12.955 -13.545 0.623
-13.012 -13.526 0.549
-13.012 -13.526 0.549
-13.863 -13.288 -0.573
-13.640 -13.329 -0.311
-12.955 -13.545 0.623
-13.012 -13.526 0.549
-13.012 -13.526 0.549
-12.955 -13.545 0.622
-12.408 -14.086 1.675
-18.853 -12.699 -6.239
-13.618 -13.331 -0.287
-10.911 -11.689 0.794
-12.424 -14.080 1.516
-13.008 -13.527 0.554
-13.027 -13.412 0.383
-12.998 -13.534 0.569
-13.008 -13.527 0.553
-13.022 -13.409 0.385
-12.952 -13.545 0.626
-17.404 -13.264 -4.174
-15.526 -13.463 -2.150
-19.346 -12.972 -6.410
-12.966 -13.545 0.611
-13.023 -13.525 0.537
-12.462 -14.120 1.502
-13.881 -13.286 -0.592
-12.966 -13.545 0.612
-13.283 -13.375 0.087
-13.881 -13.286 -0.592
-12.434 -14.059 1.624
-13.071 -13.403 0.331
-14.111 -14.768 0.651
-11.960 -11.826 -0.116
-13.283 -13.378 0.089
-12.998 -13.620 0.621
-13.001 -13.527 0.561
-12.966 -13.545 0.612
-13.803 -13.272 -0.529
-13.881 -13.286 -0.592
-13.579 -13.314 -0.265
-12.966 -13.545 0.612
-12.585 -11.846 -0.721
-13.881 -13.286 -0.592
-13.022 -13.526 0.537
-12.448 -14.114 1.513
-13.022 -13.527 0.539
-14.186 -14.766 0.574
-13.656 -13.326 -0.330
-12.966 -13.545 0.612
-13.881 -13.286 -0.592
-11.960 -11.826 -0.116
-13.881 -13.286 -0.592
-12.966 -13.545 0.612
-13.881 -13.286 -0.592
-13.022 -13.525 0.537
-12.585 -11.846 -0.721
-13.074 -13.406 0.331
-13.803 -13.272 -0.529
-13.022 -13.525 0.537
-14.111 -14.768 0.651
-12.966 -13.545 0.612
-12.966 -13.545 0.612
-17.761 -13.203 -4.594
-13.655 -13.327 -0.326
-10.588 -11.709 1.134
-11.615 -12.912 1.316
-13.025 -13.526 0.535
-19.131 -13.009 -6.158
-10.931 -11.677 0.762
-13.230 -13.357 0.122
-12.669 -13.208 0.552
-13.658 -13.326 -0.331
-12.967 -13.545 0.611
-12.670 -11.862 -0.791
-19.343 -12.973 -6.407
-12.586 -11.846 -0.721
-13.658 -13.328 -0.329
-13.001 -13.526 0.559
-12.966 -13.545 0.612
-13.803 -13.272 -0.529
-10.928 -11.680 0.767
-13.022 -13.525 0.537
-13.657 -13.327 -0.329
-13.022 -13.525 0.537
-15.525 -13.464 -2.147
-12.955 -13.545 0.623
-11.573 -13.032 1.478
-14.115 -14.775 0.654
-12.948 -13.623 0.674
-14.085 -14.778 0.687
-12.990 -13.524 0.567
-12.409 -14.086 1.674
-12.664 -11.863 -0.784
-12.955 -13.545 0.623
-10.919 -11.684 0.781
-13.757 -14.590 0.824
-12.423 -14.085 1.660
-13.822 -13.272 -0.548
-12.580 -11.847 -0.714
-13.012 -13.526 0.549
-14.155 -14.775 0.614
-13.644 -13.330 -0.313
-13.035 -13.523 0.522
-14.098 -14.773 0.669
-12.979 -13.542 0.596
-13.565 -13.317 -0.248
-13.060 -13.409 0.347
-13.644 -13.330 -0.313
-13.565 -13.317 -0.248
-10.922 -11.676 0.769
-13.035 -13.523 0.522
-13.644 -13.330 -0.313
-13.644 -13.330 -0.313
-13.060 -13.409 0.347
-12.665 -11.862 -0.785
-13.701 -14.584 0.875
-12.944 -13.524 0.615
-12.432 -14.082 1.649
-13.014 -13.521 0.541
-12.979 -13.542 0.596
-13.565 -13.317 -0.248
-13.270 -13.379 0.103
-13.041 -13.520 0.513
-13.565 -13.317 -0.248
-13.698 -14.584 0.879
-10.922 -11.675 0.769
-13.041 -13.520 0.513
-13.001 -13.544 0.576
-14.101 -14.774 0.667
-13.399 -13.519 0.125
-13.697 -14.584 0.879
-13.565 -13.317 -0.248
-13.644 -13.330 -0.313
-11.359 -11.863 0.521
-14.101 -14.774 0.667
-10.922 -11.676 0.769
-13.220 -13.366 0.140
-13.035 -13.523 0.522
-12.960 -13.624 0.662
-10.923 -11.671 0.764
-12.979 -13.542 0.596
-12.476 -14.092 1.468
-13.302 -13.377 0.069
-12.979 -13.542 0.596
-13.223 -13.364 0.136
-12.979 -13.542 0.596
-12.411 -14.124 1.703
-13.263 -13.372 0.103
-13.642 -13.328 -0.314
-13.187 -13.364 0.170
-12.979 -13.542 0.596
-13.014 -13.521 0.541
-14.098 -14.773 0.669
-12.979 -13.542 0.596
-13.788 -13.274 -0.513
-10.923 -11.675 0.767
-13.071 -13.408 0.335
-10.516 -11.078 0.559
-10.516 -11.076 0.557
-12.979 -13.542 0.595
-13.643 -13.329 -0.313
-13.221 -13.363 0.136
-10.923 -11.675 0.768
-10.923 -11.673 0.766
-13.035 -13.523 0.522
-13.398 -13.511 0.118
-13.303 -13.380 0.073
-13.643 -13.329 -0.313
-13.057 -13.611 0.554
-12.927 -13.626 0.698
-12.909 -13.545 0.669
-10.924 -11.674 0.766
-13.058 -13.611 0.553
-13.221 -13.363 0.136
-8.748 -13.555 -0.145
-12.417 -14.083 1.663
-13.013 -13.521 0.541
-13.035 -13.523 0.522
-13.564 -13.315 -0.249
-12.979 -13.542 0.596
-13.098 -13.403 0.303
-11.578 -13.031 1.472
-14.155 -14.775 0.614
-13.994 -14.785 0.786
-13.013 -13.520 0.541
-11.037 -12.808 1.784
-12.384 -13.930 1.399
-12.395 -13.946 1.395
-12.149 -11.757 -0.375
-13.034 -13.481 0.481
-13.034 -13.481 0.481
-13.136 -13.376 0.241
-13.121 -13.450 0.365
-13.121 -13.451 0.366
-13.651 -13.296 -0.353
-13.202 -13.674 0.472
-13.299 -13.341 0.038
-13.137 -13.374 0.237
-10.989 -11.656 0.682
-10.989 -11.657 0.684
-10.989 -11.657 0.684
-13.380 -13.351 -0.033
-13.299 -13.341 0.037
-12.453 -13.921 1.321
-13.137 -13.374 0.237
-13.094 -13.451 0.394
-10.915 -12.498 1.601
-12.543 -13.899 1.357
-10.852 -12.480 1.643
-11.317 -11.834 0.534
-13.731 -13.307 -0.421
-11.317 -11.834 0.534
-13.115 -13.455 0.376
-10.582 -11.670 1.103
-13.731 -13.308 -0.421
-13.299 -13.341 0.038
-12.541 -13.900 1.358
-12.768 -13.142 0.387
-13.121 -13.450 0.365
-12.434 -13.932 1.347
-13.299 -13.341 0.038
-14.177 -14.694 0.517
-13.651 -13.296 -0.353
-13.299 -13.341 0.037
-13.266 -13.343 0.072
-11.317 -11.834 0.534
-12.561 -13.901 1.341
-12.435 -13.931 1.346
-13.974 -13.277 -0.693
-11.988 -11.825 -0.145
-13.668 -13.304 -0.362
-14.339 -14.679 0.340
-13.094 -13.452 0.394
-12.987 -13.482 0.530
-12.987 -13.482 0.530
-12.987 -13.482 0.530
-13.162 -13.383 0.222
-13.121 -13.451 0.366
-13.402 -13.361 -0.045
-13.057 -13.478 0.455
-10.551 -11.081 0.528
-13.146 -13.573 0.429
-13.204 -13.675 0.471
-13.115 -13.455 0.376
-12.678 -13.141 0.476
-13.115 -13.455 0.376
-10.865 -12.486 1.633
-12.780 -13.142 0.375
-12.453 -13.918 1.319
-11.506 -12.927 1.415
-14.222 -14.694 0.473
-14.339 -14.679 0.340
-14.176 -14.694 0.518
-13.057 -13.478 0.455
-13.936 -14.481 0.542
-13.084 -13.477 0.427
-13.668 -13.304 -0.362
-11.045 -12.088 1.039
-13.936 -14.481 0.542
-10.966 -12.484 1.532
-13.115 -13.455 0.376
-11.376 -11.861 0.502
-11.376 -11.861 0.502
-14.283 -14.679 0.395
-13.115 -13.454 0.376
-14.174 -14.693 0.519
-12.987 -13.482 0.529
-13.084 -13.477 0.427
-10.552 -11.664 1.127
-13.204 -13.578 0.374
-13.668 -13.304 -0.362
-12.787 -13.142 0.369
-14.174 -14.692 0.519
-13.030 -13.452 0.459
-13.322 -13.351 0.025
-10.983 -11.660 0.693
-10.906 -12.505 1.616
-12.228 -13.749 1.479
-13.668 -13.304 -0.361
-13.321 -13.351 0.026
-13.115 -13.450 0.371
-13.322 -13.351 0.026
-13.186 -13.571 0.387
-13.511 -13.521 0.016
-13.323 -13.355 0.028
-13.121 -13.450 0.366
-13.094 -13.452 0.394
-13.141 -13.389 0.248
-12.987 -13.482 0.530
-13.094 -13.451 0.393
-13.323 -13.355 0.028
-14.339 -14.679 0.340
-12.452 -13.921 1.322
-13.121 -13.451 0.366
-13.084 -13.477 0.427
-13.114 -13.455 0.376
-13.094 -13.452 0.394
-13.121 -13.450 0.366
-13.323 -13.355 0.028
-12.776 -13.145 0.382
-10.982 -11.662 0.696
-13.405 -13.365 -0.043
-13.084 -13.477 0.427
-14.342 -14.680 0.338
-13.323 -13.355 0.028
-12.452 -13.917 1.320
-13.291 -13.357 0.062
-14.163 -14.693 0.530
-13.624 -13.532 -0.086
-13.084 -13.477 0.427
-10.549 -11.665 1.132
-13.081 -13.378 0.298
-14.284 -14.679 0.395
-12.987 -13.482 0.530
-13.121 -13.451 0.366
-10.983 -11.661 0.694
-13.219 -13.580 0.362
-14.339 -14.679 0.340
-13.204 -13.675 0.471
-13.165 -13.385 0.221
-12.987 -13.481 0.529
-13.323 -13.355 0.028
-12.410 -13.922 1.367
-12.776 -13.144 0.382
-11.217 -12.244 1.024
-13.093 -13.452 0.394
-13.323 -13.355 0.028
-12.452 -13.923 1.323
-10.982 -11.661 0.695
-13.888 -14.478 0.587
-12.987 -13.482 0.530
-11.027 -11.748 0.734
-13.057 -13.478 0.456
-13.057 -13.478 0.456
-13.084 -13.477 0.427
-12.777 -13.144 0.381
-13.094 -13.452 0.394
-13.193 -13.572 0.381
-13.084 -13.477 0.427
-13.166 -13.385 0.220
-12.987 -13.482 0.530
-13.323 -13.355 0.028
-14.177 -14.694 0.517
-13.323 -13.355 0.028
-13.668 -13.304 -0.362
-13.322 -13.351 0.025
-13.121 -13.450 0.366
-13.167 -13.384 0.217
-13.322 -13.351 0.025
-13.094 -13.452 0.394
-12.987 -13.482 0.530
-10.907 -12.504 1.614
-13.084 -13.477 0.427
-14.283 -14.679 0.395
-10.495 -11.074 0.577
-14.287 -14.680 0.393
-13.403 -13.361 -0.045
-12.777 -13.144 0.381
-13.084 -13.477 0.427
-12.987 -13.483 0.531
-13.322 -13.351 0.025
-13.057 -13.478 0.455
-14.287 -14.680 0.393
-11.159 -12.781 1.635
-13.289 -13.353 0.059
-10.983 -11.660 0.693
-13.319 -13.353 0.029
-13.094 -13.452 0.394
-13.057 -13.478 0.455
-13.271 -13.581 0.311
-12.411 -13.921 1.366
-12.411 -13.921 1.366
-11.386 -11.860 0.492
-11.026 -11.749 0.735
-12.797 -13.144 0.361
-13.057 -13.478 0.455
-13.121 -13.451 0.366
-14.287 -14.680 0.393
-13.057 -13.479 0.456
-13.084 -13.477 0.427
-13.184 -13.385 0.202
-13.322 -13.351 0.025
-12.787 -13.142 0.369
-13.168 -13.384 0.217
-12.987 -13.482 0.530
-13.115 -13.455 0.376
-13.003 -13.453 0.487
-14.222 -14.694 0.473
-12.787 -13.141 0.368
-13.030 -13.452 0.459
-13.094 -13.451 0.394
-13.935 -14.481 0.542
-12.965 -13.480 0.550
-13.030 -13.452 0.459
-13.121 -13.450 0.365
-13.156 -13.381 0.225
-12.790 -13.144 0.368
-13.094 -13.451 0.394
-13.084 -13.477 0.426
-13.121 -13.450 0.365
-13.084 -13.477 0.427
-13.156 -13.381 0.225
-11.379 -11.861 0.499
-13.286 -13.351 0.060
-13.121 -13.450 0.365
-11.126 -11.952 0.840
-14.177 -14.694 0.517
-12.780 -13.142 0.375
-12.509 -13.892 1.380
-13.225 -13.683 0.458
-13.318 -13.348 0.026
-13.121 -13.450 0.365
-13.286 -13.351 0.060
-11.379 -11.861 0.499
-14.287 -14.680 0.393
-14.222 -14.694 0.473
-13.149 -13.386 0.237
-13.668 -13.304 -0.362
-14.212 -14.704 0.492
-10.978 -11.659 0.697
-13.021 -13.451 0.466
-13.376 -13.330 -0.053
-13.077 -13.474 0.431
-13.127 -13.358 0.228
-12.981 -13.479 0.533
-10.979 -11.658 0.695
-13.294 -13.320 0.019
-13.050 -13.475 0.459
-13.256 -13.570 0.314
-13.134 -13.569 0.434
-14.340 -14.677 0.337
-13.296 -13.318 0.015
-12.451 -13.922 1.323
-13.256 -13.570 0.313
-13.087 -13.450 0.399
-13.134 -13.569 0.434
-12.789 -13.142 0.367
-13.077 -13.474 0.431
-13.077 -13.474 0.431
-11.287 -11.883 0.610
-14.223 -14.693 0.471
-11.064 -12.781 1.730
-13.803 -13.260 -0.537
-13.057 -13.478 0.455
-13.299 -13.342 0.039
-12.464 -13.938 1.318
-12.788 -13.141 0.367
-12.797 -13.144 0.360
-13.094 -13.451 0.394
-13.299 -13.342 0.039
-13.084 -13.477 0.427
-13.094 -13.451 0.394
-13.084 -13.477 0.427
-13.202 -13.674 0.472
-11.421 -11.851 0.445
-13.057 -13.478 0.455
-13.049 -13.573 0.525
-12.453 -13.913 1.318
-12.988 -13.482 0.529
-10.506 -11.073 0.566
-12.412 -13.914 1.363
-10.915 -12.498 1.600
-14.177 -14.694 0.517
-13.299 -13.342 0.039
-12.422 -13.937 1.362
-13.084 -13.477 0.427
-12.453 -13.920 1.321
-12.988 -13.483 0.530
-13.299 -13.342 0.039
-13.057 -13.478 0.455
-14.177 -14.694 0.517
-14.287 -14.680 0.393
-13.084 -13.477 0.427
-13.057 -13.478 0.455
-12.328 -13.937 1.461
-11.318 -11.834 0.533
-13.055 -13.368 0.313
-13.084 -13.477 0.427
-13.057 -13.478 0.455
-13.084 -13.477 0.427
-11.053 -12.787 1.747
-14.339 -14.678 0.340
-12.453 -13.922 1.321
-13.299 -13.342 0.039
-10.953 -12.484 1.547
-13.084 -13.477 0.427
-13.084 -13.476 0.426
-13.084 -13.477 0.427
-12.453 -13.918 1.319
-13.798 -14.491 0.691
-12.965 -13.479 0.549
-13.047 -13.367 0.320
-13.651 -13.296 -0.354
-13.052 -13.367 0.315
-13.299 -13.341 0.037
-13.030 -13.452 0.459
-10.989 -11.657 0.684
-13.084 -13.477 0.427
-14.338 -14.679 0.340
-10.953 -12.483 1.546
-11.221 -12.241 1.018
-13.003 -13.453 0.487
-13.084 -13.477 0.427
-12.777 -13.144 0.380
-14.338 -14.679 0.340
-12.965 -13.480 0.549
-14.287 -14.680 0.393
-13.299 -13.341 0.038
-13.084 -13.477 0.427
-11.316 -11.834 0.536
-12.679 -13.140 0.474
-12.464 -13.930 1.313
-12.454 -13.921 1.321
-12.423 -13.916 1.352
-12.988 -13.482 0.529
-13.057 -13.478 0.455
-13.873 -14.477 0.601
-13.873 -14.477 0.601
-12.778 -13.144 0.380
-13.003 -13.453 0.487
-13.084 -13.477 0.427
-12.988 -13.482 0.529
-13.084 -13.477 0.427
-12.412 -13.918 1.364
-12.454 -13.917 1.319
-13.101 -13.375 0.274
-10.990 -11.658 0.683
-12.778 -13.144 0.380
-13.057 -13.478 0.455
-13.094 -13.451 0.394
-13.057 -13.479 0.456
-10.990 -11.657 0.683
-13.057 -13.478 0.455
-13.139 -13.570 0.433
-13.057 -13.478 0.455
-13.133 -13.373 0.241
-14.339 -14.678 0.340
-12.453 -13.914 1.318
-13.057 -13.478 0.455
-10.990 -11.657 0.683
-13.202 -13.674 0.472
-14.339 -14.678 0.340
-13.084 -13.477 0.427
-13.084 -13.477 0.427
-10.990 -11.657 0.683
-13.057 -13.477 0.454
-12.454 -13.921 1.320
-12.988 -13.482 0.529
-13.084 -13.475 0.426
-12.778 -13.144 0.380
-13.266 -13.343 0.072
-13.137 -13.374 0.237
-12.965 -13.480 0.549
-13.137 -13.374 0.237
-10.975 -11.738 0.776
-13.084 -13.477 0.427
-13.107 -13.377 0.269
-13.137 -13.374 0.237
-14.338 -14.679 0.340
-13.084 -13.477 0.427
-12.453 -13.921 1.321
-13.084 -13.477 0.427
-14.287 -14.680 0.393
-13.084 -13.477 0.427
-10.954 -12.483 1.546
-13.135 -13.675 0.540
-13.121 -13.450 0.365
-13.084 -13.477 0.427
-12.454 -13.921 1.321
-13.084 -13.477 0.427
-13.057 -13.478 0.455
-10.990 -11.657 0.682
-13.084 -13.477 0.427
-14.339 -14.678 0.340
-14.166 -14.694 0.528
-14.339 -14.678 0.340
-13.084 -13.476 0.426
-12.544 -13.896 1.353
-13.084 -13.477 0.427
-12.454 -13.921 1.320
-10.990 -11.657 0.682
-12.454 -13.919 1.320
-13.084 -13.483 0.432
-13.299 -13.341 0.037
-12.777 -13.144 0.380
-13.266 -13.343 0.072
-12.453 -13.921 1.321
-13.030 -13.452 0.459
-12.965 -13.480 0.549
-14.342 -14.680 0.338
-13.084 -13.477 0.427
-13.052 -13.367 0.314
-12.965 -13.479 0.549
-12.453 -13.918 1.320
-12.412 -13.920 1.365
-13.380 -13.351 -0.033
-12.453 -13.920 1.320
-13.057 -13.478 0.455
-13.137 -13.374 0.238
-13.057 -13.478 0.455
-10.989 -11.659 0.685
-13.084 -13.477 0.427
-13.121 -13.452 0.367
-14.342 -14.680 0.338
-13.299 -13.341 0.038
-13.121 -13.450 0.365
-12.777 -13.144 0.380
-13.084 -13.481 0.431
-13.137 -13.374 0.238
-13.202 -13.675 0.473
-12.965 -13.480 0.549
-13.084 -13.477 0.427
-12.453 -13.917 1.320
-10.989 -11.657 0.683
-13.084 -13.477 0.427
-11.221 -12.241 1.018
-13.057 -13.478 0.455
-13.137 -13.374 0.237
-13.057 -13.478 0.455
-12.797 -13.143 0.360
-13.030 -13.452 0.459
-13.121 -13.450 0.365
-13.121 -13.450 0.365
-12.453 -13.922 1.321
-13.084 -13.477 0.427
-14.342 -14.680 0.338
-13.057 -13.477 0.455
-13.094 -13.452 0.394
-13.057 -13.481 0.458
-13.084 -13.477 0.427
-12.412 -13.920 1.365
-12.453 -13.921 1.321
-13.084 -13.477 0.427
-13.121 -13.452 0.366
-13.084 -13.477 0.427
-12.592 -13.894 1.303
-10.989 -11.657 0.684
-11.221 -12.241 1.018
-13.266 -13.343 0.072
-10.989 -11.657 0.683
-10.989 -11.657 0.684
-14.338 -14.679 0.340
-12.543 -13.897 1.354
-12.965 -13.479 0.549
-14.166 -14.694 0.528
-12.453 -13.921 1.321
-10.996 -11.662 0.682
-13.056 -13.478 0.456
-13.084 -13.477 0.427
-14.339 -14.679 0.340
-12.961 -13.461 0.536
-13.227 -13.681 0.453
-14.285 -14.678 0.393
-10.978 -11.659 0.697
-13.077 -13.474 0.431
-12.461 -13.940 1.321
-12.958 -13.477 0.553
-13.077 -13.474 0.431
-11.026 -13.106 2.083
-12.532 -13.868 1.335
-12.769 -13.143 0.388
-13.077 -13.474 0.431
-13.057 -13.352 0.292
-13.050 -13.475 0.459
-14.343 -14.679 0.335
-13.077 -13.474 0.431
-13.050 -13.475 0.460
-8.260 -7.990 -0.274
-12.958 -13.477 0.553
-13.042 -13.356 0.310
-13.050 -13.475 0.459
-12.769 -13.143 0.388
-11.278 -13.582 2.297
-13.050 -13.475 0.459
-13.023 -13.449 0.463
-13.050 -13.475 0.459
-12.451 -13.922 1.323
-13.141 -13.360 0.216
-11.172 -12.786 1.627
-13.866 -14.475 0.606
-12.958 -13.477 0.553
-13.792 -14.489 0.695
-13.022 -13.354 0.328
-14.223 -14.693 0.470
-13.136 -13.358 0.219
-13.077 -13.474 0.431
-12.461 -13.934 1.317
-13.136 -13.358 0.219
-14.343 -14.679 0.335
-12.995 -13.458 0.499
-13.077 -13.474 0.431
-10.979 -11.658 0.695
-13.050 -13.475 0.459
-13.077 -13.474 0.431
-14.340 -14.677 0.338
-13.077 -13.474 0.431
-12.958 -13.477 0.553
-10.972 -11.742 0.783
-12.789 -13.142 0.368
-12.461 -13.939 1.320
-13.121 -13.357 0.233
-13.050 -13.475 0.459
-13.077 -13.474 0.430
-13.121 -13.357 0.233
-13.008 -13.353 0.341
-13.104 -13.566 0.463
-12.549 -13.893 1.345
-13.039 -13.350 0.308
-12.451 -13.919 1.322
-14.340 -14.677 0.337
-14.340 -14.677 0.337
-12.461 -13.938 1.320
-12.451 -13.922 1.323
-13.165 -13.568 0.401
-13.866 -14.475 0.605
-14.340 -14.677 0.337
-13.123 -13.357 0.232
-14.285 -14.677 0.393
-12.769 -13.143 0.387
-14.340 -14.677 0.337
-10.972 -11.742 0.783
-13.077 -13.474 0.431
-14.343 -14.679 0.335
-12.461 -13.935 1.318
-13.077 -13.474 0.431
-13.205 -13.672 0.467
-13.077 -13.474 0.431
-13.050 -13.475 0.459
-10.833 -11.951 1.131
-13.009 -13.353 0.340
-12.958 -13.477 0.553
-13.165 -13.568 0.401
-12.451 -13.922 1.323
-13.114 -13.447 0.369
-13.050 -13.475 0.459
-13.077 -13.474 0.431
-13.050 -13.475 0.459
-13.123 -13.357 0.232
-13.093 -13.360 0.264
-12.461 -13.938 1.320
-11.029 -11.751 0.735
-13.866 -14.475 0.605
-13.050 -13.475 0.459
-13.077 -13.474 0.431
-13.134 -13.569 0.434
-14.164 -14.692 0.528
-11.279 -13.747 2.458
-12.419 -13.937 1.363
-12.461 -13.937 1.319
-12.656 -13.140 0.497
-12.789 -13.142 0.367
-13.138 -13.358 0.218
-13.039 -13.350 0.308
-13.134 -13.569 0.434
-10.978 -11.659 0.697
-11.029 -11.751 0.735
-14.166 -14.694 0.529
-13.866 -14.475 0.605
-12.461 -13.941 1.320
-12.419 -13.933 1.362
-13.050 -13.475 0.459
-12.461 -13.938 1.320
-14.340 -14.677 0.338
-13.205 -13.672 0.467
-12.958 -13.477 0.553
-12.769 -13.143 0.388
-12.996 -13.450 0.491
-11.173 -12.783 1.622
-13.077 -13.474 0.431
-13.077 -13.475 0.432
-11.278 -13.675 2.388
-10.833 -11.951 1.131
-11.610 -8.487 -3.180
-9.112 -8.243 -0.855
-9.746 -9.322 -0.444
-11.874 -6.944 -4.961
-10.967 -8.470 -2.549
-7.440 -7.944 0.477
-11.373 -8.497 -2.929
-7.565 -8.531 0.986
-7.762 -9.093 1.314
-11.967 -6.138 -5.902
-10.999 -8.927 -2.069
-8.993 -8.263 -0.714
-11.875 -6.943 -4.961
-10.534 -8.370 -2.175
-9.121 -8.241 -0.865
-8.746 -9.425 0.641
-8.746 -9.427 0.642
-9.187 -8.992 -0.184
-11.394 -8.568 -2.877
-8.987 -8.241 -0.730
-8.987 -8.251 -0.719
-11.612 -8.487 -3.183
-7.763 -9.099 1.319
-8.759 -9.422 0.623
-9.430 -8.466 -0.983
-8.987 -8.234 -0.738
-7.763 -9.096 1.316
-9.789 -9.322 -0.487
-9.116 -8.241 -0.860
-10.062 -9.206 -0.839
-9.840 -9.207 -0.616
-9.998 -9.206 -0.775
-12.780 -11.824 -0.939
-11.583 -8.502 -3.138
-7.757 -9.095 1.321
-8.833 -9.446 0.572
-11.583 -8.503 -3.138
-11.374 -8.581 -2.843
-9.350 -9.228 -0.107
-9.424 -8.469 -0.974
-9.354 -9.009 -0.333
-10.523 -8.373 -2.161
-8.735 -9.427 0.653
-7.119 -8.098 0.989
-9.097 -8.223 -0.860
-8.690 -9.427 0.696
-11.583 -8.503 -3.138
-7.117 -8.095 0.988
-7.838 -9.170 1.314
-9.424 -8.469 -0.974
-10.571 -11.672 1.115
-10.979 -8.931 -2.045
-11.583 -8.503 -3.138
-7.099 -7.907 0.816
-8.833 -9.446 0.572
-8.527 -8.838 0.302
-9.723 -9.326 -0.418
-11.815 -7.051 -4.789
-9.752 -9.420 -0.320
-8.791 -8.389 -0.388
-10.363 -8.420 -1.951
-11.371 -8.583 -2.838
-9.832 -9.210 -0.605
-7.424 -7.931 0.483
-11.583 -8.503 -3.138
-8.834 -9.446 0.572
-8.753 -9.422 0.629
-9.990 -9.211 -0.762
-9.098 -8.237 -0.846
-11.374 -8.581 -2.843
-9.990 -9.211 -0.762
-9.831 -9.210 -0.604
-9.805 -9.346 -0.478
-7.564 -8.531 0.988
-8.751 -9.421 0.631
-9.989 -9.210 -0.761
-9.830 -9.210 -0.603
-9.989 -9.210 -0.761
-11.583 -8.503 -3.138
-9.353 -9.009 -0.333
-9.098 -8.235 -0.848
-9.454 -9.003 -0.440
-8.412 -8.105 -0.296
-9.818 -9.214 -0.587
-9.350 -9.009 -0.330
-9.980 -9.212 -0.751
-9.808 -11.794 1.978
-8.791 -8.389 -0.388
-11.374 -8.581 -2.843
-9.990 -9.211 -0.762
-7.838 -9.169 1.313
-9.344 -8.206 -1.205
-9.226 -8.327 -0.896
-9.690 -9.310 -0.401
-11.352 -8.511 -2.894
-7.425 -7.939 0.489
-7.099 -7.907 0.815
-8.608 -9.376 0.728
-8.765 -8.388 -0.363
-9.991 -9.211 -0.763
-10.364 -8.420 -1.953
-11.374 -8.581 -2.843
-7.099 -7.907 0.816
-9.354 -9.009 -0.333
-9.354 -9.009 -0.333
-7.564 -8.531 0.986
-8.700 -9.422 0.679
-8.364 -7.645 -0.719
-10.054 -9.209 -0.828
-13.669 -13.305 -0.362
-11.385 -8.617 -2.816
-9.469 -9.003 -0.455
-11.612 -8.487 -3.182
-7.111 -8.494 1.379
-8.767 -8.388 -0.365
-8.438 -8.833 0.386
-7.557 -8.392 0.862
-7.145 -8.105 0.973
-8.758 -9.420 0.622
-11.395 -8.568 -2.877
-10.000 -9.208 -0.775
-9.349 -9.227 -0.108
-7.763 -9.083 1.303
-7.565 -8.532 0.986
-11.001 -8.926 -2.072
-8.707 -9.425 0.676
-8.841 -9.448 0.566
-9.837 -9.208 -0.612
-9.117 -8.243 -0.859
-9.188 -8.992 -0.185
-9.833 -9.211 -0.605
-11.923 -11.806 -0.100
-12.595 -11.850 -0.726
-9.822 -9.213 -0.592
-9.099 -8.187 -0.894
-11.349 -8.513 -2.889
-9.455 -9.003 -0.441
-8.431 -7.659 -0.772
-7.101 -7.908 0.814
-11.374 -8.581 -2.844
-7.423 -7.931 0.483
-8.972 -8.234 -0.723
-8.607 -9.378 0.731
-9.322 -8.538 -0.789
-7.115 -8.096 0.992
-7.112 -8.512 1.396
-9.832 -9.210 -0.605
-7.758 -9.098 1.323
-9.184 -8.995 -0.179
-7.423 -7.931 0.484
-9.455 -9.003 -0.440
-7.141 -8.106 0.977
-8.765 -8.388 -0.362
-11.814 -7.059 -4.781
-11.370 -8.583 -2.837
-11.583 -8.503 -3.137
-9.455 -9.003 -0.440
-9.185 -8.994 -0.179
-7.371 -8.346 0.983
-7.423 -7.931 0.484
-11.814 -7.059 -4.782
-7.363 -7.969 0.582
-8.812 -8.281 -0.514
-7.159 -8.019 0.828
-7.569 -8.525 0.977
-9.438 -9.030 -0.397
-11.814 -7.059 -4.781
-10.978 -8.932 -2.043
-8.688 -9.426 0.697
-7.118 -8.513 1.391
-7.424 -7.929 0.481
-8.822 -9.450 0.587
-8.598 -9.385 0.748
-10.048 -9.209 -0.821
-9.452 -9.003 -0.438
-8.409 -8.105 -0.293
-7.558 -8.533 0.995
-9.350 -9.009 -0.329
-8.813 -9.452 0.599
-7.559 -8.534 0.995
-9.979 -9.212 -0.750
-8.764 -8.388 -0.362
-8.813 -9.452 0.599
-10.043 -9.210 -0.816
-9.341 -8.208 -1.200
-8.105 -8.500 0.391
-8.608 -9.576 0.954
-7.512 -8.209 0.713
-11.373 -11.872 0.516
-8.593 -9.388 0.756
-7.120 -8.515 1.391
-9.720 -9.326 -0.414
-8.915 -8.584 -0.338
-7.564 -8.532 0.987
-10.349 -11.526 1.155
-9.095 -8.268 -0.814
-8.973 -8.252 -0.707
-8.979 -8.267 -0.697
-8.749 -9.424 0.635
-8.972 -8.236 -0.721
-8.605 -9.379 0.735
-9.097 -8.238 -0.844
-9.718 -9.326 -0.412
-9.802 -9.346 -0.475
-10.051 -9.208 -0.826
-8.002 -10.004 2.003
-8.917 -8.584 -0.340
-7.441 -7.841 0.419
-9.106 -8.265 -0.825
-8.979 -8.261 -0.702
-9.182 -8.995 -0.177
-7.155 -8.021 0.834
-10.978 -8.932 -2.043
-7.561 -8.533 0.991
-8.765 -8.391 -0.359
-8.822 -9.450 0.587
-9.357 -8.452 -0.910
-9.453 -9.003 -0.439
-7.102 -7.907 0.812
-7.760 -9.113 1.336
-9.453 -9.003 -0.439
-7.102 -7.907 0.812
-9.985 -9.210 -0.758
-7.841 -9.182 1.323
-8.825 -9.448 0.583
-9.100 -8.232 -0.853
-11.370 -8.583 -2.837
-10.053 -9.209 -0.827
-8.791 -8.389 -0.387
-9.184 -8.995 -0.179
-9.827 -9.213 -0.597
-8.915 -8.586 -0.336
-11.814 -7.059 -4.781
-8.679 -9.437 0.712
-9.151 -8.627 -0.522
-9.752 -9.420 -0.319
-7.104 -7.907 0.809
-9.681 -9.313 -0.389
-9.988 -9.210 -0.760
-8.606 -9.378 0.732
-9.183 -8.994 -0.178
-8.746 -9.423 0.638
-8.831 -9.446 0.574
-9.097 -8.233 -0.848
-10.052 -9.208 -0.827
-7.422 -7.930 0.484
-10.366 -8.420 -1.954
-10.047 -9.209 -0.820
-7.561 -8.533 0.992
-9.761 -11.811 2.064
-9.824 -9.211 -0.596
-9.752 -9.421 -0.319
-9.449 -9.005 -0.433
-9.329 -9.236 -0.078
-7.426 -7.929 0.478
-6.940 -7.988 1.057
-10.034 -9.213 -0.804
-9.178 -8.996 -0.171
-8.716 -8.295 -0.411
-10.526 -8.373 -2.164
-9.824 -9.210 -0.596
-7.405 -8.467 1.065
-8.735 -9.427 0.654
-9.104 -8.237 -0.852
-11.347 -8.514 -2.887
-7.354 -8.385 1.032
-10.979 -8.932 -2.045
-9.102 -8.239 -0.848
-9.102 -8.238 -0.849
-13.654 -13.312 -0.339
-9.102 -8.236 -0.851
-7.424 -7.929 0.481
-8.984 -8.261 -0.707
-11.373 -8.582 -2.841
-7.101 -7.908 0.813
-8.764 -8.389 -0.362
-8.709 -9.421 0.670
-9.833 -9.208 -0.607
-8.434 -8.835 0.393
-7.558 -8.404 0.873
-9.990 -9.211 -0.762
-9.096 -8.237 -0.843
-8.607 -9.378 0.731
-9.455 -9.004 -0.440
-7.141 -8.106 0.978
-8.970 -8.245 -0.709
-7.565 -8.531 0.986
-9.990 -9.211 -0.761
-11.373 -8.582 -2.841
-9.455 -9.004 -0.440
-9.990 -9.211 -0.761
-11.373 -8.582 -2.841
-9.096 -8.239 -0.841
-8.547 -8.837 0.280
-8.433 -8.836 0.394
-9.185 -8.995 -0.179
-7.113 -8.512 1.394
-10.979 -8.932 -2.044
-8.740 -9.426 0.646
-9.453 -9.003 -0.438
-11.379 -7.662 -3.721
-9.366 -8.464 -0.917
-9.991 -9.211 -0.762
-7.370 -8.346 0.984
-8.002 -10.003 2.001
-9.536 -9.231 -0.289
-8.434 -8.836 0.393
-8.835 -9.445 0.569
-9.350 -9.230 -0.105
-9.350 -9.230 -0.105
-8.910 -8.586 -0.330
-9.991 -9.211 -0.762
-8.610 -9.377 0.727
-7.516 -8.476 0.963
-7.376 -7.924 0.525
-9.991 -9.212 -0.762
-8.610 -9.377 0.727
-7.101 -7.908 0.814
-8.805 -8.441 -0.380
-9.287 -8.989 -0.288
-9.351 -9.230 -0.105
-9.185 -8.995 -0.179
-8.366 -7.645 -0.721
-8.431 -8.837 0.397
-10.055 -9.209 -0.829
-9.185 -8.995 -0.179
-9.185 -8.995 -0.179
-8.366 -7.645 -0.720
-7.112 -8.511 1.395
-11.373 -8.582 -2.841
-8.915 -8.585 -0.337
-8.978 -8.258 -0.704
-13.653 -13.312 -0.338
-9.990 -9.211 -0.761
-7.762 -8.746 0.990
-7.565 -8.531 0.986
-8.608 -9.577 0.955
-9.831 -9.210 -0.604
-8.977 -8.265 -0.696
-8.430 -8.837 0.397
-9.096 -8.234 -0.846
-13.653 -13.312 -0.338
-11.609 -8.487 -3.180
-8.554 -8.835 0.271
-7.567 -8.540 0.991
-7.567 -8.540 0.991
-7.112 -8.512 1.396
-7.564 -8.532 0.987
-8.976 -8.262 -0.698
-10.064 -9.206 -0.841
-8.851 -9.445 0.552
-9.842 -9.207 -0.618
-10.000 -9.210 -0.773
-8.767 -8.388 -0.365
-8.727 -9.421 0.651
-7.771 -8.741 0.977
-8.910 -8.583 -0.335
-8.557 -8.835 0.268
-7.851 -9.207 1.337
-10.000 -9.209 -0.774
-11.499 -7.395 -4.118
-9.414 -8.215 -1.263
-6.898 -8.452 1.548
-8.197 -9.732 1.538
-7.448 -8.468 1.046
-8.197 -9.732 1.538
-11.090 -8.931 -2.157
-8.366 -7.644 -0.722
-7.856 -9.190 1.316
-8.918 -8.581 -0.344
-8.748 -9.424 0.636
-9.367 -9.007 -0.349
-7.801 -8.324 0.476
-9.837 -9.208 -0.612
-9.367 -9.007 -0.349
-9.995 -9.209 -0.769
-9.836 -9.208 -0.611
-9.995 -9.209 -0.769
-7.154 -8.021 0.835
-11.395 -8.568 -2.877
-7.156 -8.021 0.833
-7.112 -8.512 1.395
-8.616 -9.377 0.721
-8.616 -9.377 0.721
-8.912 -8.582 -0.337
-11.001 -8.926 -2.072
-11.352 -9.326 -2.006
-9.190 -7.982 -1.210
-7.561 -8.531 0.991
-9.341 -9.228 -0.098
-9.747 -9.321 -0.447
-9.998 -9.208 -0.773
-9.302 -8.538 -0.769
-8.580 -9.876 1.293
-9.533 -9.227 -0.291
-8.987 -8.236 -0.735
-8.004 -10.004 2.001
-8.613 -9.377 0.725
-8.368 -9.064 0.709
-13.280 -13.345 0.061
-10.063 -9.206 -0.840
-9.773 -9.418 -0.343
-8.577 -9.399 0.783
-8.814 -9.458 0.604
-9.122 -8.243 -0.864
-9.981 -9.212 -0.752
-9.981 -9.213 -0.751
-8.920 -8.583 -0.346
-9.288 -7.976 -1.295
-11.392 -8.570 -2.873
-8.912 -8.583 -0.336
-8.646 -8.401 -0.231
-8.616 -9.377 0.720
-9.469 -9.002 -0.457
-7.157 -8.021 0.832
-10.064 -9.206 -0.840
-11.392 -8.570 -2.873
-7.763 -9.099 1.319
-10.000 -9.209 -0.774
-8.797 -8.389 -0.394
-10.064 -9.206 -0.840
-7.565 -8.531 0.986
-10.373 -8.418 -1.963
-11.612 -8.487 -3.182
-8.985 -8.253 -0.716
-7.373 -8.345 0.980
-8.606 -9.577 0.957
-9.842 -9.207 -0.617
-7.768 -8.744 0.983
-9.469 -9.001 -0.457
-13.283 -13.347 0.060
-10.064 -9.208 -0.839
-10.000 -9.209 -0.774
-7.548 -8.331 0.809
-9.112 -8.266 -0.830
-7.156 -8.021 0.833
-8.912 -8.582 -0.337
-8.366 -7.645 -0.722
-9.838 -9.210 -0.611
-9.190 -8.993 -0.186
-8.606 -9.569 0.949
-8.133 -9.912 1.760
-7.513 -9.033 1.520
-7.111 -8.513 1.397
-8.624 -9.379 0.715
-8.851 -9.445 0.552
-9.110 -8.237 -0.858
-8.910 -8.583 -0.334
-10.349 -11.526 1.155
-8.615 -9.378 0.723
-10.000 -9.209 -0.774
-7.565 -8.532 0.987
-9.746 -9.322 -0.445
-8.768 -8.388 -0.366
-9.189 -8.992 -0.187
-7.654 -8.349 0.656
-7.557 -8.402 0.872
-8.369 -9.064 0.707
-13.634 -13.303 -0.329
-8.606 -9.577 0.957
-8.616 -9.379 0.722
-7.321 -7.919 0.577
-8.760 -9.420 0.620
-10.063 -9.206 -0.840
-8.613 -9.378 0.724
-9.348 -9.226 -0.107
-9.431 -8.467 -0.983
-9.761 -11.812 2.066
-8.605 -9.577 0.957
-8.367 -7.645 -0.722
-8.797 -8.389 -0.394
-11.433 -7.614 -3.824
-8.171 -9.985 1.818
-6.993 -7.859 0.883
-7.075 -8.510 1.430
-8.364 -7.648 -0.715
-7.159 -8.019 0.827
-10.964 -8.477 -2.540
-11.364 -8.505 -2.912
-9.470 -9.002 -0.457
-7.015 -7.825 0.827
-8.853 -9.445 0.551
-8.726 -9.421 0.652
-11.875 -6.951 -4.953
-11.372 -8.499 -2.926
-8.366 -7.645 -0.722
-9.369 -9.007 -0.350
-10.064 -9.206 -0.841
-8.220 -7.647 -0.572
-8.943 -8.381 -0.560
-9.190 -8.993 -0.187
-8.613 -9.376 0.724
-9.325 -8.536 -0.793
-7.762 -9.097 1.318
-7.104 -7.907 0.811
-8.758 -9.420 0.622
-8.605 -9.585 0.967
-8.615 -9.376 0.721
-10.349 -11.526 1.155
-8.913 -8.583 -0.337
-8.646 -8.402 -0.230
-10.350 -11.525 1.155
-8.645 -8.205 -0.426
-9.842 -9.207 -0.618
-8.349 -9.066 0.730
-6.522 -8.013 1.502
-8.827 -7.811 -1.006
-9.470 -9.002 -0.457
-8.607 -9.577 0.956
-7.157 -8.021 0.832
-8.607 -9.574 0.954
-11.303 -11.842 0.556
-7.157 -8.021 0.832
-8.852 -9.444 0.551
-8.797 -8.389 -0.394
-9.762 -11.812 2.065
-8.605 -9.577 0.957
-7.653 -8.350 0.658
-9.293 -8.986 -0.296
-9.431 -8.467 -0.983
-7.796 -8.325 0.481
-8.580 -9.876 1.293
-9.350 -9.225 -0.110
-9.189 -8.993 -0.185
-7.564 -8.532 0.987
-8.607 -9.577 0.956
-7.156 -8.021 0.833
-7.564 -8.531 0.987
-7.564 -8.531 0.987
-9.189 -8.993 -0.185
-10.057 -9.172 -0.872
-8.615 -9.377 0.722
-7.814 -9.150 1.318
-11.303 -11.842 0.556
-8.234 -10.174 1.939
-8.619 -9.379 0.719
-8.619 -9.379 0.719
-11.497 -7.388 -4.124
-10.392 -8.420 -1.981
-6.519 -8.014 1.506
-11.298 -11.842 0.561
-7.561 -8.536 0.994
-7.554 -8.407 0.880
-9.835 -9.208 -0.611
-7.561 -8.534 0.993
-7.767 -8.740 0.980
-8.605 -9.577 0.957
-9.993 -9.209 -0.767
-8.601 -9.384 0.743
-9.342 -9.227 -0.099
-8.920 -8.581 -0.346
-8.839 -9.449 0.570
-8.603 -9.385 0.742
-7.767 -8.744 0.984
-8.747 -9.425 0.639
-8.603 -9.385 0.742
-8.004 -10.006 2.002
-9.341 -9.229 -0.096
-8.603 -9.385 0.742
-7.768 -9.122 1.337
-6.519 -8.014 1.506
-11.392 -8.570 -2.873
-9.326 -8.535 -0.796
-8.614 -9.377 0.723
-8.985 -8.235 -0.735
-7.565 -8.532 0.986
-7.156 -8.021 0.832
-8.606 -9.579 0.959
-8.722 -9.421 0.657