-8.434 -8.620 0.175
-8.413 -8.568 0.140
-6.753 -7.318 0.561
-6.753 -7.318 0.560
-6.753 -7.318 0.561
-6.753 -7.318 0.561
-8.229 -8.664 0.427
-8.254 -8.664 0.400
-8.254 -8.664 0.400
-8.254 -8.664 0.400
-8.414 -8.567 0.138
-6.752 -7.318 0.561
-7.380 -8.276 0.897
-6.755 -7.317 0.558
-8.254 -8.664 0.400
-8.254 -8.664 0.400
-8.414 -8.567 0.138
-8.259 -8.664 0.395
-6.752 -7.318 0.561
-8.254 -8.664 0.401
-6.752 -7.318 0.561
-8.414 -8.567 0.138
-6.752 -7.318 0.561
-6.752 -7.318 0.561
-8.414 -8.567 0.138
-8.414 -8.567 0.138
-8.259 -8.664 0.395
-8.414 -8.567 0.138
-8.414 -8.567 0.138
-8.237 -8.664 0.418
-8.720 -8.484 -0.233
-8.720 -8.484 -0.233
-8.720 -8.484 -0.233
-9.219 -8.822 -0.403
-8.648 -9.210 0.562
-8.814 -8.499 -0.312
-8.711 -8.487 -0.221
-7.504 -7.939 0.435
-6.580 -7.336 0.760
-8.718 -8.486 -0.230
-8.718 -8.486 -0.230
-6.525 -7.350 0.830
-8.718 -8.486 -0.230
-8.718 -8.486 -0.230
-8.718 -8.486 -0.230
-7.521 -7.939 0.417
-7.411 -8.272 0.862
-7.411 -8.272 0.862
-8.821 -8.498 -0.321
-9.398 -8.829 -0.574
-7.586 -8.447 0.865
-8.821 -8.498 -0.321
-9.309 -8.802 -0.513
-9.309 -8.802 -0.513
-9.398 -8.829 -0.574
-9.227 -8.819 -0.413
-8.657 -8.469 -0.185
-8.719 -8.485 -0.231
-8.719 -8.485 -0.231
-6.769 -7.315 0.542
-8.719 -8.485 -0.231
-9.223 -8.818 -0.410
-9.223 -8.818 -0.410
-6.657 -7.379 0.717
-6.691 -7.452 0.756
-8.770 -8.512 -0.256
-7.415 -8.272 0.858
-7.096 -8.365 1.274
-8.328 -8.648 0.310
-8.163 -8.610 0.434
-8.328 -8.648 0.310
-8.658 -8.469 -0.186
-9.224 -8.818 -0.411
-8.823 -8.498 -0.323
-9.222 -8.818 -0.409
-7.373 -8.274 0.902
-6.762 -7.316 0.550
-9.390 -8.826 -0.568
-7.231 -8.160 0.932
-7.415 -8.272 0.858
-8.302 -8.648 0.338
-8.327 -8.648 0.311
-7.416 -8.272 0.857
-6.563 -7.336 0.777
-7.339 -8.384 1.049
-8.327 -8.648 0.311
-7.338 -8.384 1.049
-6.567 -7.334 0.771
-6.567 -7.334 0.771
-6.789 -7.314 0.520
-8.302 -8.648 0.337
-8.719 -8.485 -0.231
-9.223 -8.818 -0.410
-9.223 -8.818 -0.410
-8.721 -8.486 -0.232
-7.370 -7.946 0.576
-8.823 -8.498 -0.323
-8.772 -8.513 -0.257
-7.373 -8.274 0.902
-8.325 -8.648 0.313
-6.567 -7.334 0.770
-6.567 -7.334 0.770
-6.567 -7.334 0.770
-7.131 -8.364 1.238
-7.372 -8.274 0.903
-8.325 -8.648 0.313
-7.415 -8.272 0.859
-8.771 -8.512 -0.256
-9.221 -8.818 -0.409
-6.689 -7.481 0.787
-7.523 -7.939 0.415
-8.923 -8.527 -0.394
-7.370 -7.946 0.577
-7.131 -8.364 1.238
-6.567 -7.334 0.770
-6.188 -8.024 1.841
-7.068 -8.400 1.336
-8.770 -8.512 -0.255
-8.770 -8.512 -0.255
-7.231 -8.160 0.932
-8.719 -8.486 -0.230
-9.222 -8.818 -0.409
-5.333 -7.315 1.985
-8.771 -8.513 -0.256
-6.524 -7.350 0.830
-9.222 -8.819 -0.409
-5.333 -7.315 1.985
-7.415 -8.272 0.859
-5.399 -7.321 1.926
-7.232 -8.160 0.931
-7.415 -8.272 0.859
-7.097 -8.365 1.273
-6.850 -8.384 1.536
-7.560 -8.452 0.895
-5.177 -7.300 2.119
-6.397 -7.421 1.029
-6.929 -8.901 1.976
-5.406 -7.321 1.919
-8.778 -8.474 -0.300
-6.354 -7.437 1.087
-7.475 -8.970 1.495
-6.791 -7.312 0.517
-9.478 -8.812 -0.670
-5.391 -7.321 1.934
-6.544 -7.331 0.791
-9.265 -8.816 -0.455
-7.416 -8.267 0.853
-7.161 -8.361 1.204
-8.206 -8.614 0.396
-6.764 -8.403 1.643
-8.369 -8.653 0.274
-7.476 -8.970 1.493
-8.369 -8.653 0.274
-6.573 -7.333 0.764
-7.460 -8.263 0.805
-6.550 -8.881 2.336
-7.072 -8.408 1.341
-8.369 -8.653 0.274
-8.369 -8.653 0.274
-6.181 -8.009 1.833
-6.409 -7.654 1.244
-6.369 -8.326 1.961
-6.179 -8.009 1.834
-5.405 -7.321 1.919
-7.529 -9.020 1.493
-7.476 -8.969 1.493
-5.223 -7.285 2.059
-6.737 -8.751 2.017
-6.402 -7.421 1.022
-7.415 -8.267 0.854
-6.786 -7.312 0.523
-6.395 -7.422 1.031
-8.343 -8.653 0.301
-7.530 -9.020 1.493
-6.404 -7.421 1.021
-8.368 -8.653 0.275
-6.241 -8.016 1.780
-7.668 -8.642 0.964
-6.608 -8.071 1.467
-6.914 -8.310 1.400
-6.548 -7.831 1.288
-6.735 -8.751 2.019
-5.344 -7.314 1.973
-7.391 -7.941 0.550
-8.874 -8.509 -0.363
-6.840 -8.351 1.515
-6.840 -8.351 1.515
-9.265 -8.816 -0.455
-7.663 -8.480 0.820
-6.915 -9.040 2.122
-6.763 -7.317 0.550
-6.539 -8.871 2.336
-8.124 -8.622 0.487
-6.240 -8.016 1.780
-7.025 -8.368 1.347
-6.399 -7.421 1.026
-6.783 -7.313 0.526
-7.530 -9.020 1.492
-7.530 -9.020 1.492
-6.779 -8.155 1.379
-8.343 -8.653 0.301
-6.736 -8.751 2.018
-6.656 -8.315 1.664
-6.574 -7.333 0.762
-7.477 -8.970 1.493
-6.608 -8.071 1.467
-8.125 -8.623 0.487
-6.240 -8.016 1.780
-6.361 -7.436 1.079
-7.338 -8.280 0.943
-6.774 -7.303 0.524
-6.848 -8.316 1.472
-7.317 -8.392 1.079
-6.752 -7.317 0.561
-6.782 -8.158 1.380
-6.400 -7.424 1.028
-6.726 -8.750 2.027
-8.011 -8.636 0.614
-6.404 -7.424 1.024
-6.400 -7.425 1.029
-6.876 -8.316 1.444
-8.639 -9.199 0.560
-6.785 -7.314 0.525
-6.748 -8.411 1.666
-8.115 -8.616 0.488
-7.378 -8.622 1.246
-8.387 -8.677 0.281
-6.551 -7.342 0.795
-6.551 -7.342 0.795
-7.134 -8.364 1.234
-5.213 -7.408 2.199
-6.760 -8.157 1.401
-6.401 -7.425 1.028
-6.689 -8.586 1.899
-6.854 -8.384 1.533
-6.254 -8.032 1.783
-8.639 -9.199 0.560
-6.244 -8.038 1.798
-6.244 -8.038 1.798
-6.836 -8.311 1.479
-6.271 -7.420 1.151
-8.279 -8.652 0.363
-6.393 -7.425 1.036
-6.193 -7.398 1.208
-7.534 -8.451 0.920
-6.905 -8.106 1.206
-7.125 -8.367 1.246
-6.332 -8.326 1.997
-6.399 -7.425 1.030
-6.828 -8.385 1.559
-6.332 -8.326 1.998
-6.332 -8.326 1.998
-6.237 -8.019 1.786
-6.188 -8.009 1.825
-6.188 -8.009 1.825
-8.639 -9.199 0.560
-8.872 -8.521 -0.349
-7.409 -8.272 0.864
-7.605 -8.496 0.893
-6.196 -8.024 1.832
-6.785 -7.315 0.525
-6.695 -8.586 1.893
-7.396 -9.169 1.775
-6.733 -8.749 2.019
-8.176 -8.648 0.460
-7.409 -8.272 0.865
-8.317 -8.648 0.322
-8.714 -8.487 -0.223
-8.766 -8.514 -0.250
-8.766 -8.514 -0.250
-6.615 -8.470 1.847
-6.794 -7.312 0.513
-9.382 -8.827 -0.560
-6.792 -8.467 1.679
-6.144 -7.413 1.272
-6.924 -8.407 1.486
-8.713 -8.487 -0.223
-8.765 -8.514 -0.249
-7.372 -8.623 1.253
-5.587 -7.297 1.714
-6.993 -8.204 1.215
-6.343 -7.437 1.098
-6.849 -8.383 1.536
-6.759 -7.317 0.554
-8.184 -8.648 0.453
-6.995 -8.372 1.381
-6.534 -7.830 1.300
-6.848 -8.314 1.470
-6.756 -8.407 1.654
-6.788 -7.314 0.521
-6.534 -7.830 1.300
-7.243 -8.493 1.243
-7.243 -8.493 1.242
-6.606 -8.072 1.470
-6.444 -8.033 1.593
-5.337 -7.314 1.980
-7.416 -8.272 0.858
-6.693 -8.586 1.894
-7.416 -8.272 0.858
-6.630 -8.466 1.829
-6.630 -8.466 1.829
-6.436 -8.029 1.596
-6.693 -8.586 1.894
-6.564 -7.336 0.775
-6.777 -8.160 1.387
-6.777 -8.160 1.387
-6.023 -7.804 1.783
-6.693 -8.585 1.894
-6.049 -7.349 1.303
-6.389 -7.423 1.038
-8.064 -8.627 0.553
-8.393 -8.677 0.275
-6.848 -8.314 1.471
-6.188 -8.024 1.840
-5.217 -7.286 2.066
-6.394 -7.422 1.031
-6.155 -7.701 1.550
-6.155 -7.701 1.550
-7.615 -8.495 0.882
-6.380 -7.426 1.051
-7.232 -8.160 0.931
-6.849 -8.383 1.536
-6.568 -7.333 0.769
-8.720 -8.485 -0.232
-8.771 -8.512 -0.256
-6.188 -8.024 1.840
-6.249 -8.031 1.786
-6.761 -8.155 1.398
-6.533 -7.828 1.299
-6.693 -8.585 1.894
-7.233 -8.161 0.931
-6.535 -7.333 0.802
-7.238 -8.492 1.247
-5.386 -7.322 1.939
-6.769 -8.472 1.707
-6.395 -8.023 1.631
-6.849 -8.383 1.536
-7.066 -8.401 1.339
-6.692 -8.585 1.894
-6.692 -8.585 1.894
-6.692 -8.585 1.894
-8.328 -8.648 0.311
-7.418 -8.272 0.855
-8.773 -8.512 -0.259
-6.687 -8.587 1.901
-6.687 -8.587 1.901
-6.620 -8.470 1.842
-7.234 -8.160 0.929
-6.843 -8.468 1.629
-6.874 -8.171 1.301
-8.773 -8.512 -0.259
-7.514 -8.607 1.095
-6.088 -8.016 1.931
-6.469 -8.048 1.583
-5.586 -6.727 1.145
-7.133 -8.364 1.235
-7.384 -9.171 1.790
-6.961 -8.371 1.414
-5.763 -7.184 1.422
-5.763 -7.184 1.422
-8.627 -9.196 0.568
-6.693 -8.585 1.894
-6.011 -8.048 2.041
-6.611 -8.320 1.714
-6.730 -8.751 2.024
-6.730 -8.751 2.024
-6.730 -8.751 2.024
-5.929 -7.319 1.393
-6.626 -8.466 1.833
-6.626 -8.466 1.833
-5.400 -7.322 1.926
-8.698 -8.491 -0.204
-6.803 -8.346 1.547
-5.371 -7.346 1.979
-6.840 -8.385 1.547
-5.583 -6.727 1.149
-6.730 -8.751 2.024
-6.920 -8.417 1.500
-6.748 -8.409 1.665
-5.583 -6.727 1.148
-6.391 -7.422 1.035
-6.391 -7.422 1.035
-6.693 -8.585 1.894
-6.693 -8.585 1.894
-6.570 -7.334 0.768
-6.765 -8.157 1.396
-6.687 -8.585 1.900
-8.188 -8.647 0.448
-6.764 -8.156 1.396
-8.627 -9.196 0.568
-8.627 -9.196 0.568
-6.532 -7.831 1.303
-5.583 -6.727 1.148
-8.188 -8.647 0.448
-6.663 -8.322 1.663
-6.850 -8.383 1.535
-6.400 -7.421 1.025
-7.378 -8.621 1.245
-8.326 -8.648 0.312
-8.627 -9.196 0.568
-6.766 -8.157 1.395
-6.213 -8.034 1.825
-8.879 -8.519 -0.357
-7.616 -8.495 0.882
-6.546 -8.505 1.962
-6.380 -7.426 1.051
-7.373 -8.274 0.902
-6.626 -8.467 1.834
-8.628 -9.196 0.568
-8.628 -9.196 0.568
-7.388 -8.278 0.891
-6.631 -8.466 1.828
-7.388 -8.278 0.891
-6.219 -8.045 1.830
-7.028 -8.414 1.389
-6.789 -7.313 0.519
-7.241 -8.160 0.922
-7.347 -8.274 0.928
-6.886 -8.316 1.434
-8.634 -9.200 0.565
-6.985 -8.373 1.392
-7.378 -8.622 1.246
-7.129 -8.402 1.278
-6.623 -8.464 1.834
-8.031 -8.623 0.581
-6.096 -7.172 1.077
-6.044 -7.874 1.831
-6.044 -7.874 1.831
-6.044 -7.874 1.831
-6.777 -7.313 0.532
-8.697 -8.490 -0.204
-8.878 -8.519 -0.356
-7.234 -8.160 0.929
-6.188 -8.024 1.840
-7.384 -9.166 1.785
-7.384 -9.166 1.786
-6.041 -7.871 1.831
-6.849 -8.313 1.469
-5.399 -7.322 1.926
-8.185 -8.647 0.450
-6.630 -8.465 1.828
-6.605 -8.072 1.472
-6.585 -7.409 0.828
-8.326 -8.648 0.313
-6.759 -7.317 0.554
-6.393 -7.422 1.032
-7.065 -8.402 1.341
-8.627 -9.197 0.570
-6.687 -8.586 1.900
-6.631 -8.465 1.826
-5.567 -7.414 1.850
-6.949 -8.373 1.427
-5.658 -6.825 1.170
-5.582 -6.727 1.149
-8.627 -9.197 0.570
-7.244 -8.493 1.241
-6.692 -8.585 1.894
-6.746 -8.409 1.667
-6.600 -8.322 1.726
-6.391 -7.422 1.035
-6.127 -7.894 1.768
-7.244 -8.492 1.241
-6.444 -8.025 1.585
-7.092 -8.400 1.312
-6.989 -8.144 1.159
-6.687 -8.585 1.900
-8.081 -8.619 0.527
-6.630 -8.465 1.828
-6.630 -8.465 1.828
-8.627 -9.197 0.570
-6.822 -7.306 0.480
-8.627 -9.196 0.568
-6.601 -8.322 1.726
-6.766 -8.157 1.395
-6.236 -8.038 1.806
-7.244 -8.493 1.241
-6.570 -7.334 0.768
-8.288 -8.652 0.354
-8.698 -8.491 -0.204
-8.633 -9.198 0.565
-6.181 -8.029 1.852
-6.241 -8.037 1.800
-7.054 -8.402 1.353
-6.687 -8.586 1.900
-6.392 -7.422 1.034
-6.631 -8.465 1.826
-8.049 -8.621 0.561
-7.146 -9.108 1.960
-8.633 -9.207 0.573
-6.602 -8.321 1.724
-7.121 -8.366 1.249
-7.050 -8.404 1.358
-8.187 -8.647 0.448
-8.627 -9.197 0.570
-6.627 -8.465 1.831
-6.238 -8.038 1.804
-6.238 -8.038 1.804
-8.438 -8.558 0.105
-6.601 -8.322 1.725
-6.765 -8.157 1.395
-6.687 -8.586 1.900
-6.658 -8.896 2.242
-6.569 -7.333 0.768
-6.781 -7.309 0.523
-7.534 -8.452 0.921
-8.914 -8.523 -0.389
-7.661 -8.480 0.822
-7.552 -9.021 1.472
-6.694 -8.585 1.892
-6.770 -7.315 0.541
-7.477 -8.970 1.493
-8.779 -8.473 -0.304
-7.136 -8.751 1.609
-7.202 -8.196 0.998
-6.907 -8.436 1.533
-6.620 -8.469 1.842
-6.946 -9.034 2.085
-7.249 -8.155 0.908
-7.661 -8.480 0.821
-6.186 -8.036 1.855
-6.689 -8.585 1.898
-6.629 -8.467 1.831
-7.475 -8.969 1.494
-6.819 -8.166 1.351
-6.562 -7.339 0.781
-6.689 -8.585 1.898
-6.826 -8.167 1.346
-6.869 -8.329 1.464
-5.561 -6.738 1.180
-5.561 -6.738 1.180
-7.241 -8.494 1.245
-6.688 -8.585 1.898
-6.799 -7.312 0.508
-6.055 -7.486 1.435
-6.003 -7.808 1.807
-6.263 -7.368 1.108
-8.629 -9.196 0.567
-7.554 -8.453 0.903
-8.629 -9.198 0.568
-6.691 -8.586 1.896
-6.583 -7.409 0.830
-8.627 -9.196 0.568
-7.153 -9.102 1.948
-6.248 -8.031 1.788
-6.630 -8.465 1.828
-6.998 -8.371 1.377
-6.248 -8.031 1.788
-8.482 -8.556 0.059
-6.160 -7.701 1.545
-8.172 -8.609 0.425
-8.775 -8.511 -0.262
-8.633 -9.198 0.565
-6.298 -7.902 1.604
-5.336 -7.315 1.982
-7.548 -8.458 0.913
-6.689 -8.586 1.898
-5.498 -6.760 1.266
-6.870 -8.442 1.576
-6.139 -8.022 1.887
-8.627 -9.196 0.569
-5.660 -6.824 1.168
-7.128 -8.401 1.276
-7.128 -8.401 1.276
-7.077 -8.401 1.328
-6.602 -8.321 1.723
-7.077 -8.401 1.328
-8.633 -9.207 0.574
-6.691 -8.585 1.895
-8.879 -8.519 -0.357
-7.412 -8.272 0.861
-6.401 -8.040 1.643
-7.376 -8.621 1.247
-9.399 -8.829 -0.575
-5.581 -6.726 1.149
-6.586 -7.408 0.827
-5.703 -7.248 1.548
-5.703 -7.248 1.548
-5.337 -7.314 1.980
-6.426 -8.328 1.906
-6.223 -8.027 1.809
-5.338 -7.314 1.980
-8.627 -9.196 0.569
-7.152 -9.102 1.948
-7.243 -8.493 1.242
-6.902 -8.105 1.207
-7.578 -8.453 0.879
-6.198 -8.031 1.837
-5.343 -7.314 1.974
-8.627 -9.197 0.570
-6.627 -8.465 1.831
-7.051 -8.404 1.357
-6.516 -8.883 2.371
-5.867 -7.299 1.436
-6.043 -7.873 1.830
-6.985 -8.373 1.392
-6.601 -8.322 1.725
-6.786 -7.314 0.523
-5.698 -7.248 1.554
-6.237 -8.038 1.805
-8.627 -9.196 0.568
-8.184 -8.648 0.453
-7.373 -9.156 1.787
-6.693 -8.585 1.894
-5.703 -7.248 1.548
-6.382 -8.021 1.643
-6.247 -8.032 1.789
-7.385 -9.161 1.779
-7.067 -8.401 1.339
-6.393 -7.422 1.032
-6.665 -8.112 1.448
-6.247 -8.032 1.789
-6.561 -8.368 1.810
-7.378 -8.621 1.245
-7.535 -8.452 0.920
-6.210 -7.417 1.210
-5.608 -7.343 1.738
-7.160 -9.063 1.900
-7.476 -8.970 1.494
-7.550 -9.021 1.473
-5.609 -7.343 1.737
-5.609 -7.343 1.737
-5.609 -7.343 1.737
-6.287 -7.971 1.688
-6.206 -7.966 1.763
-5.954 -8.047 2.097
-5.954 -8.047 2.097
-6.901 -8.189 1.292
-6.666 -8.594 1.929
-5.612 -7.266 1.658
-7.338 -8.280 0.943
-8.634 -9.200 0.565
-8.634 -9.200 0.565
-8.634 -9.200 0.565
-7.378 -8.622 1.247
-8.635 -9.201 0.566
-8.635 -9.200 0.565
-8.634 -9.200 0.565
-6.693 -8.587 1.896
-6.693 -8.587 1.896
-8.635 -9.201 0.566
-8.818 -8.500 -0.315
-7.326 -8.586 1.263
-7.063 -8.435 1.377
-8.640 -9.202 0.562
-8.757 -8.521 -0.234
-8.640 -9.202 0.562
-5.533 -7.414 1.884
-5.164 -7.425 2.265
-7.447 -8.452 1.008
-5.572 -6.725 1.157
-8.638 -9.210 0.572
-6.774 -7.304 0.524
-6.289 -7.426 1.141
-5.564 -6.730 1.170
-8.175 -8.648 0.461
-6.618 -8.465 1.840
-6.695 -8.586 1.892
-6.995 -8.773 1.773
-8.638 -9.200 0.562
-7.163 -8.376 1.216
-7.163 -8.376 1.216
-6.689 -8.586 1.899
-7.379 -8.622 1.245
-6.618 -8.465 1.839
-7.378 -8.622 1.246
-7.235 -8.493 1.251
-6.619 -8.465 1.839
-6.952 -8.372 1.424
-7.448 -9.269 1.824
-6.623 -8.464 1.835
-6.619 -8.465 1.839
-6.245 -8.037 1.797
-7.534 -8.451 0.920
-8.638 -9.200 0.562
-6.109 -7.173 1.066
-6.238 -8.037 1.803
-7.434 -9.270 1.839
-7.434 -9.270 1.838
-6.308 -7.897 1.590
-8.626 -9.196 0.570
-7.561 -8.453 0.895
-6.198 -8.030 1.837
-6.022 -7.802 1.781
-8.626 -9.196 0.570
-6.314 -7.676 1.363
-5.700 -7.248 1.552
-8.627 -9.196 0.569
-8.627 -9.196 0.569
-6.564 -8.328 1.763
-8.627 -9.196 0.569
-7.245 -8.492 1.241
-7.377 -8.621 1.245
-6.028 -8.048 2.023
-6.962 -8.787 1.820
-6.028 -8.048 2.023
-5.400 -7.322 1.925
-9.260 -8.807 -0.459
-6.625 -8.463 1.831
-7.388 -8.277 0.891
-7.388 -8.277 0.891
-8.628 -9.196 0.568
-7.245 -8.857 1.605
-8.314 -10.244 1.930
-6.630 -8.466 1.829
-7.161 -8.380 1.223
-6.151 -7.890 1.741
-7.146 -9.109 1.962
-6.598 -8.969 2.371
-6.784 -8.161 1.381
-6.777 -8.160 1.387
-5.765 -7.184 1.420
-8.628 -9.196 0.567
-7.709 -8.679 0.961
-6.023 -7.804 1.783
-6.777 -8.160 1.387
-9.391 -8.827 -0.569
-8.720 -8.485 -0.232
-9.303 -8.801 -0.507
-6.847 -8.165 1.322
-6.924 -8.406 1.486
-6.564 -8.326 1.761
-8.627 -9.196 0.568
-7.535 -8.452 0.920
-7.561 -8.452 0.894
-7.750 -9.488 1.742
-8.628 -9.196 0.568
-7.436 -9.269 1.837
-7.436 -9.269 1.836
-6.209 -7.419 1.212
-7.052 -8.402 1.354
-6.313 -7.677 1.364
-7.445 -9.277 1.835
-6.303 -8.015 1.715
-8.186 -8.647 0.450
-7.385 -9.168 1.787
-6.151 -7.890 1.741
-7.373 -9.156 1.786
-5.603 -7.343 1.743
-5.399 -7.321 1.926
-8.628 -9.196 0.567
-8.628 -9.196 0.567
-8.628 -9.196 0.568
-6.965 -8.785 1.816
-6.071 -7.639 1.567
-5.761 -7.186 1.427
-6.309 -7.897 1.588
-8.634 -9.207 0.572
-8.628 -9.196 0.568
-6.756 -7.317 0.557
-7.579 -8.453 0.878
-8.628 -9.196 0.567
-8.628 -9.196 0.567
-6.403 -7.654 1.250
-6.392 -7.422 1.034
-6.392 -7.422 1.034
-8.628 -9.196 0.567
-6.763 -8.156 1.397
-6.952 -8.372 1.424
-7.188 -9.194 2.002
-5.309 -7.339 2.034
-7.375 -9.143 1.772
-7.188 -9.194 2.003
-8.484 -8.555 0.057
-6.211 -7.414 1.206
-6.693 -8.585 1.893
-6.790 -7.316 0.521
-6.630 -8.465 1.828
-8.628 -9.196 0.567
-8.628 -9.196 0.567
-7.243 -8.855 1.606
-8.628 -9.196 0.567
-7.188 -9.194 2.003
-6.778 -7.313 0.531
-6.669 -9.034 2.361
-7.188 -9.194 2.003
-6.046 -7.872 1.827
-6.156 -7.889 1.734
-8.628 -9.196 0.567
-8.628 -9.196 0.567
-8.628 -9.196 0.567
-7.436 -9.269 1.836
-6.216 -8.032 1.821
-8.185 -8.647 0.450
-6.394 -7.421 1.031
-8.628 -9.196 0.568
-6.956 -8.787 1.825
-8.628 -9.196 0.567
-8.628 -9.196 0.567
-8.628 -9.196 0.567
-6.392 -7.422 1.034
-8.628 -9.196 0.567
-6.403 -7.654 1.250
-8.045 -8.622 0.566
-8.628 -9.196 0.567
-8.628 -9.196 0.567
-6.405 -8.323 1.922
-8.186 -8.647 0.450
-8.628 -9.197 0.569
-8.628 -9.196 0.567
-8.628 -9.196 0.567
-8.628 -9.196 0.567
-8.127 -8.613 0.474
-7.562 -8.452 0.894
-7.751 -9.488 1.740
-7.021 -8.767 1.741
-8.315 -10.247 1.932
-8.634 -9.207 0.572
-7.446 -9.278 1.835
-7.436 -9.270 1.836
-5.400 -7.322 1.925
-7.152 -9.100 1.947
-6.605 -8.073 1.472
-8.628 -9.196 0.568
-7.243 -8.855 1.606
-6.582 -8.326 1.743
-6.781 -7.309 0.523
-7.374 -9.143 1.772
-7.374 -9.144 1.773
-7.579 -8.453 0.878
-5.405 -7.322 1.920
-6.954 -8.911 1.961
-6.020 -7.802 1.784
-7.130 -8.747 1.611
-7.130 -8.747 1.611
-7.472 -8.971 1.499
-6.135 -7.963 1.831
-5.406 -7.321 1.919
-5.406 -7.321 1.919
-7.635 -8.616 0.971
-7.472 -8.971 1.499
-7.130 -8.747 1.611
-6.942 -9.024 2.079
-7.235 -8.784 1.543
-6.612 -8.361 1.752
-7.544 -9.024 1.482
-6.366 -7.435 1.073
-8.303 -10.235 1.931
-6.250 -7.883 1.634
-7.129 -8.747 1.612
-7.129 -8.747 1.612
-5.744 -8.321 2.576
-7.545 -9.023 1.480
-7.125 -8.748 1.617
-6.954 -9.031 2.073
-7.490 -8.974 1.484
-7.545 -9.023 1.480
-6.601 -8.473 1.864
-7.490 -8.974 1.484
-6.790 -7.313 0.519
-7.035 -8.599 1.566
-6.957 -9.030 2.070
-6.952 -9.032 2.076
-6.602 -8.473 1.865
-6.952 -9.032 2.076
-6.407 -7.653 1.246
-6.771 -7.315 0.540
-9.256 -8.816 -0.445
-7.558 -9.029 1.473
-7.128 -8.750 1.615
-6.219 -7.885 1.667
-4.481 -6.424 1.946
-6.677 -7.426 0.743
-7.908 -7.860 -0.048
-7.908 -7.860 -0.048
-7.908 -7.860 -0.048
-7.277 -7.569 0.294
-7.908 -7.860 -0.048
-7.266 -8.525 1.252
-7.914 -7.857 -0.058
-7.335 -8.618 1.285
-7.594 -8.587 0.983
-6.657 -8.112 1.456
-7.376 -8.621 1.248
-7.376 -8.621 1.248
-7.335 -8.618 1.285
-8.263 -7.919 -0.346
-7.375 -8.621 1.248
-7.375 -8.621 1.248
-7.266 -8.526 1.252
-7.266 -8.526 1.252
-7.375 -8.621 1.248
-7.375 -8.621 1.248
-7.266 -8.526 1.252
-7.266 -8.526 1.252
-7.266 -8.526 1.252
-7.914 -7.857 -0.058
-7.594 -8.587 0.983
-7.594 -8.587 0.983
-6.721 -8.752 2.034
-6.657 -8.112 1.456
-6.721 -8.752 2.034
-7.376 -8.621 1.248
-7.594 -8.587 0.983
-7.290 -7.879 0.588
-7.375 -8.621 1.248
-6.984 -8.568 1.573
-7.376 -8.621 1.248
-8.263 -7.919 -0.346
-7.266 -8.526 1.252
-7.375 -8.621 1.248
-7.375 -8.621 1.248
-6.657 -8.112 1.456
-6.926 -7.834 0.909
-7.376 -8.621 1.248
-7.376 -8.621 1.248
-7.376 -8.621 1.248
-7.376 -8.621 1.248
-6.850 -8.166 1.319
-7.376 -8.621 1.247
-6.889 -8.100 1.216
-6.657 -8.112 1.456
-6.657 -8.112 1.456
-6.657 -8.112 1.456
-6.657 -8.578 1.922
-6.662 -8.119 1.458
-7.265 -8.524 1.251
-6.659 -8.577 1.920
-6.889 -8.100 1.216
-7.265 -8.524 1.250
-6.889 -8.100 1.216
-6.659 -8.577 1.920
-7.377 -8.621 1.247
-7.265 -8.524 1.251
-7.377 -8.621 1.247
-6.659 -8.577 1.920
-7.914 -7.857 -0.058
-6.046 -7.873 1.828
-6.363 -7.426 1.067
-7.594 -8.587 0.983
-6.046 -7.872 1.827
-6.657 -8.112 1.456
-7.914 -7.857 -0.057
-7.376 -8.621 1.248
-7.266 -8.525 1.252
-7.376 -8.621 1.248
-6.985 -8.568 1.573
-6.659 -8.577 1.920
-5.825 -7.260 1.438
-7.377 -8.621 1.247
-7.265 -8.523 1.250
-7.212 -7.856 0.644
-6.657 -8.112 1.456
-7.914 -7.857 -0.057
-6.925 -7.834 0.910
-7.375 -8.621 1.248
-7.375 -8.621 1.248
-7.375 -8.621 1.248
-7.375 -8.621 1.248
-6.657 -8.112 1.456
-6.984 -8.568 1.575
-6.822 -8.389 1.569
-7.914 -7.857 -0.058
-6.758 -7.770 1.009
-6.046 -7.873 1.828
-6.659 -8.577 1.920
-6.758 -7.770 1.009
-6.659 -8.577 1.920
-6.889 -8.100 1.216
-7.212 -7.608 0.398
-6.953 -7.812 0.860
-6.047 -7.867 1.820
-5.649 -7.067 1.422
-7.361 -7.563 0.203
-7.375 -8.620 1.247
-7.934 -7.843 -0.091
-7.334 -8.617 1.286
-5.315 -6.954 1.643
-7.104 -8.404 1.303
-7.104 -8.404 1.303
-6.724 -8.754 2.033
-6.821 -8.385 1.566
-6.993 -8.567 1.564
-7.104 -8.404 1.303
-5.387 -6.988 1.605
-7.177 -7.605 0.429
-7.934 -7.843 -0.092
-7.374 -8.620 1.248
-7.274 -8.524 1.242
-6.361 -7.423 1.065
-7.334 -8.617 1.286
-6.627 -7.992 1.367
-6.953 -7.812 0.860
-7.934 -7.843 -0.092
-7.374 -8.620 1.248
-7.325 -8.615 1.293
-7.325 -8.615 1.293
-7.273 -8.522 1.240
-7.273 -8.522 1.240
-7.934 -7.843 -0.092
-6.657 -8.577 1.921
-7.375 -8.620 1.247
-6.993 -8.567 1.564
-5.649 -7.067 1.422
-7.235 -7.583 0.347
-7.314 -7.861 0.547
-6.514 -7.335 0.824
-7.362 -7.563 0.202
-7.934 -7.843 -0.091
-6.657 -8.109 1.454
-7.274 -8.524 1.242
-7.274 -8.524 1.242
-6.047 -7.867 1.820
-6.993 -8.567 1.564
-5.387 -6.988 1.605
-6.657 -8.577 1.921
-5.649 -7.067 1.422
-7.602 -8.585 0.973
-7.374 -8.620 1.249
-7.374 -8.620 1.249
-7.374 -8.620 1.249
-5.556 -7.898 2.343
-7.690 -7.502 -0.185
-7.334 -8.617 1.286
-7.601 -8.585 0.974
-6.821 -8.385 1.566
-7.234 -7.838 0.605
-6.657 -8.577 1.921
-6.949 -7.812 0.865
-7.272 -8.523 1.243
-7.934 -7.843 -0.092
-7.274 -8.524 1.242
-7.274 -8.524 1.242
-7.238 -7.837 0.600
-7.238 -7.838 0.600
-7.325 -8.615 1.293
-7.375 -8.620 1.247
-7.602 -8.585 0.974
-6.657 -8.109 1.454
-7.104 -8.404 1.303
-7.104 -8.404 1.303
-6.821 -8.385 1.566
-7.602 -8.585 0.974
-7.602 -8.585 0.974
-6.047 -7.867 1.820
-7.104 -8.404 1.303
-6.953 -7.812 0.861
-7.006 -7.814 0.808
-7.373 -8.620 1.249
-7.177 -7.605 0.430
-6.918 -7.687 0.766
-6.664 -8.112 1.449
-6.262 -8.366 2.105
-6.866 -7.691 0.828
-7.215 -7.575 0.362
-6.987 -8.567 1.571
-6.253 -7.817 1.566
-7.336 -8.618 1.284
-6.571 -7.778 1.209
-7.206 -7.886 0.680
-7.128 -7.959 0.831
-6.066 -7.878 1.813
-6.988 -8.566 1.569
-7.242 -8.495 1.246
-7.206 -7.886 0.680
-5.387 -7.195 1.812
-5.387 -7.195 1.812
-7.206 -7.886 0.680
-6.988 -8.566 1.569
-7.215 -7.575 0.362
-7.206 -7.886 0.680
-6.663 -8.109 1.447
-5.799 -7.764 1.968
-5.821 -7.826 2.007
-7.374 -8.621 1.249
-6.681 -8.123 1.443
-6.862 -7.845 0.982
-5.417 -7.859 2.442
-7.373 -8.621 1.249
-6.987 -8.566 1.570
-6.224 -7.883 1.661
-7.207 -7.886 0.679
-5.418 -7.859 2.442
-5.417 -7.859 2.442
-7.012 -7.627 0.617
-7.336 -8.618 1.285
-6.988 -8.566 1.569
-7.242 -8.495 1.246
-6.988 -8.566 1.569
-6.840 -8.387 1.549
-7.207 -7.886 0.679
-6.864 -7.844 0.980
-7.207 -7.886 0.679
-7.242 -8.497 1.248
-6.827 -7.688 0.865
-5.656 -7.070 1.417
-7.207 -7.886 0.679
-7.336 -8.618 1.285
-6.865 -7.844 0.979
-6.361 -7.432 1.075
-5.826 -7.822 1.998
-5.826 -7.822 1.998
-6.866 -7.843 0.977
-5.594 -7.881 2.288
-6.815 -7.835 1.021
-6.665 -8.109 1.445
-7.207 -7.885 0.678
-6.665 -8.108 1.445
-7.207 -7.885 0.678
-7.207 -7.885 0.678
-7.015 -7.627 0.613
-7.244 -8.495 1.244
-7.244 -8.495 1.244
-6.809 -8.388 1.580
-6.660 -8.578 1.920
-6.368 -7.432 1.069
-5.418 -7.858 2.441
-5.598 -7.881 2.284
-5.596 -7.770 2.177
-6.660 -8.578 1.920
-7.242 -8.494 1.244
-5.824 -7.820 1.998
-7.217 -7.575 0.360
-6.810 -8.388 1.580
-7.128 -7.959 0.830
-7.372 -8.621 1.251
-6.278 -7.366 1.092
-7.372 -8.621 1.251
-6.989 -8.566 1.568
-5.696 -7.219 1.527
-6.841 -8.386 1.547
-6.666 -8.109 1.444
-5.321 -6.969 1.652
-7.600 -8.581 0.972
-6.809 -8.388 1.580
-6.809 -8.388 1.580
-6.067 -7.640 1.572
-7.374 -8.621 1.249
-7.207 -7.885 0.678
-7.336 -8.618 1.284
-5.597 -7.881 2.285
-6.067 -7.640 1.572
-5.729 -7.078 1.352
-6.827 -7.688 0.865
-6.809 -8.388 1.580
-5.502 -8.408 2.905
-7.207 -7.885 0.678
-7.217 -7.575 0.360
-6.989 -8.566 1.568
-7.217 -7.575 0.360
-6.827 -7.688 0.864
-6.809 -8.388 1.580
-4.576 -6.770 2.198
-7.015 -7.627 0.613
-7.217 -7.575 0.360
-6.841 -8.386 1.547
-6.629 -8.468 1.832
-7.600 -8.581 0.972
-7.207 -7.885 0.678
-7.217 -7.575 0.360
-6.810 -8.388 1.580
-7.217 -7.575 0.360
-7.336 -8.618 1.284
-5.809 -7.784 1.978
-5.776 -7.199 1.423
-6.809 -8.388 1.580
-7.217 -7.575 0.360
-5.827 -7.822 1.998
-9.334 -9.105 -0.227
-9.354 -9.600 0.248
-9.354 -9.600 0.248
-8.002 -8.245 0.246
-9.416 -9.106 -0.308
-8.002 -8.245 0.246
-9.416 -9.106 -0.308
-8.521 -8.811 0.295
-8.007 -8.245 0.241
-9.382 -9.591 0.211
-7.907 -7.573 -0.333
-9.372 -9.587 0.216
-8.002 -8.245 0.245
-9.355 -9.599 0.246
-9.382 -9.591 0.211
-7.233 -7.608 0.375
-9.382 -9.591 0.211
-9.416 -9.106 -0.309
-8.007 -8.245 0.241
-9.362 -9.609 0.248
-9.382 -9.591 0.211
-9.390 -9.600 0.212
-9.416 -9.106 -0.309
-8.002 -8.245 0.245
-9.382 -9.591 0.211
-8.636 -8.744 0.112
-9.416 -9.106 -0.309
-8.636 -8.744 0.112
-9.416 -9.106 -0.309
-8.611 -8.748 0.141
-9.320 -9.102 -0.216
-9.416 -9.106 -0.309
-9.382 -9.591 0.211
-9.382 -9.591 0.211
-8.611 -8.748 0.141
-9.390 -9.600 0.213
-8.636 -8.744 0.112
-7.585 -7.752 0.170
-8.003 -8.244 0.244
-7.234 -7.607 0.374
-7.877 -7.871 -0.006
-9.428 -9.106 -0.320
-9.390 -9.600 0.212
-7.893 -8.240 0.350
-9.390 -9.601 0.213
-9.382 -9.591 0.211
-8.168 -8.347 0.178
-8.003 -8.244 0.244
-8.521 -8.811 0.294
-8.497 -8.814 0.321
-9.332 -9.102 -0.228
-9.382 -9.591 0.211
-9.346 -9.595 0.251
-9.428 -9.106 -0.320
-9.390 -9.600 0.212
-9.372 -9.587 0.216
-9.428 -9.106 -0.320
-9.416 -9.106 -0.308
-8.601 -8.749 0.152
-8.168 -8.347 0.179
-9.428 -9.106 -0.320
-8.522 -8.811 0.293
-8.621 -8.751 0.134
-8.002 -8.244 0.245
-8.274 -8.347 0.078
-8.002 -8.244 0.245
-8.521 -8.811 0.294
-8.007 -8.245 0.240
-9.416 -9.106 -0.308
-8.274 -8.347 0.077
-8.168 -8.347 0.179
-9.390 -9.600 0.212
-8.003 -8.244 0.244
-9.363 -9.609 0.247
-8.487 -8.814 0.332
-9.428 -9.106 -0.320
-9.416 -9.106 -0.308
-8.637 -8.744 0.111
-8.612 -8.748 0.140
-9.372 -9.587 0.216
-8.522 -8.811 0.293
-9.382 -9.591 0.211
-8.637 -8.743 0.110
-8.522 -8.811 0.293
-7.365 -7.359 -0.003
-8.000 -8.244 0.247
-8.611 -8.748 0.141
-8.166 -8.347 0.180
-9.415 -9.106 -0.307
-8.636 -8.744 0.112
-8.601 -8.749 0.153
-8.521 -8.811 0.294
-9.392 -9.601 0.211
-9.416 -9.106 -0.309
-7.335 -7.756 0.424
-7.335 -7.756 0.424
-8.635 -8.744 0.113
-9.416 -9.106 -0.309
-9.428 -9.106 -0.320
-9.428 -9.106 -0.320
-9.372 -9.587 0.216
-7.907 -7.573 -0.333
-9.390 -9.600 0.212
-7.978 -8.246 0.271
-8.273 -8.348 0.079
-9.416 -9.106 -0.308
-9.390 -9.600 0.212
-8.167 -8.347 0.179
-8.600 -8.749 0.153
-9.382 -9.591 0.211
-8.273 -8.348 0.078
-7.233 -7.608 0.375
-8.168 -8.347 0.179
-8.173 -8.347 0.174
-8.173 -8.347 0.174
-7.972 -8.246 0.277
-7.972 -8.246 0.277
-9.389 -9.600 0.213
-9.416 -9.106 -0.309
-7.966 -8.655 0.691
-8.485 -8.815 0.334
-9.353 -9.102 -0.249
-9.414 -9.106 -0.306
-9.353 -9.600 0.248
-9.414 -9.106 -0.306
-8.600 -8.749 0.153
-7.284 -7.743 0.462
-9.414 -9.106 -0.306
-9.361 -9.609 0.249
-9.414 -9.106 -0.306
-7.978 -8.247 0.271
-9.381 -9.591 0.212
-9.415 -9.106 -0.307
-7.974 -8.246 0.275
-9.362 -9.609 0.248
-8.486 -8.815 0.333
-9.372 -9.587 0.217
-8.601 -8.749 0.153
-9.389 -9.600 0.213
-9.372 -9.587 0.217
-9.426 -9.106 -0.318
-9.414 -9.106 -0.306
-6.541 -7.807 1.269
-8.487 -8.814 0.332
-9.389 -9.600 0.213
-9.389 -9.600 0.213
-7.287 -7.742 0.457
-7.907 -7.573 -0.333
-8.275 -8.347 0.077
-9.355 -9.600 0.247
-8.612 -8.747 0.139
-8.294 -8.351 0.061
-9.354 -9.600 0.248
-7.825 -8.292 0.471
-7.338 -7.754 0.419
-9.426 -9.106 -0.318
-9.426 -9.106 -0.318
-9.362 -9.609 0.249
-9.372 -9.587 0.217
-7.286 -7.274 -0.014
-9.389 -9.600 0.213
-9.389 -9.600 0.213
-7.973 -8.246 0.275
-9.330 -9.103 -0.225
-7.338 -7.754 0.419
-8.002 -8.244 0.245
-8.497 -8.814 0.321
-8.318 -8.365 0.051
-7.833 -8.298 0.468
-6.015 -7.753 1.739
-8.522 -8.811 0.293
-9.426 -9.106 -0.318
-8.497 -8.813 0.321
-9.426 -9.106 -0.318
-8.274 -8.347 0.077
-8.278 -8.348 0.075
-8.002 -8.244 0.245
-9.389 -9.601 0.214
-7.906 -7.573 -0.332
-8.602 -8.749 0.151
-9.389 -9.600 0.213
-9.415 -9.106 -0.307
-8.487 -8.814 0.332
-7.645 -8.110 0.467
-9.426 -9.106 -0.318
-9.372 -9.587 0.217
-7.907 -7.573 -0.333
-8.294 -8.351 0.061
-8.002 -8.244 0.245
-8.002 -8.244 0.245
-9.362 -9.609 0.249
-9.372 -9.587 0.217
-9.372 -9.587 0.217
-9.372 -9.587 0.217
-9.372 -9.587 0.217
-9.389 -9.600 0.213
-7.907 -7.573 -0.333
-9.372 -9.587 0.217
-8.002 -8.244 0.245
-9.372 -9.587 0.217
-7.338 -7.755 0.420
-8.002 -8.244 0.245
-9.426 -9.106 -0.318
-9.389 -9.600 0.213
-9.389 -9.600 0.213
-7.338 -7.755 0.420
-9.415 -9.106 -0.307
-8.522 -8.811 0.293
-8.316 -8.364 0.052
-8.007 -8.245 0.240
-8.278 -8.348 0.074
-7.930 -8.822 0.892
-7.930 -8.822 0.892
-8.024 -8.850 0.827
-8.024 -8.850 0.827
-7.903 -9.354 1.452
-7.481 -8.964 1.477
-7.481 -8.964 1.478
-8.024 -8.850 0.827
-7.903 -9.354 1.452
-7.903 -9.354 1.452
-8.684 -9.709 1.027
-8.635 -9.201 0.565
-8.635 -9.201 0.565
-7.903 -9.354 1.453
-7.520 -8.455 0.939
-7.928 -8.824 0.896
-7.928 -8.824 0.896
-7.903 -9.354 1.453
-7.903 -9.354 1.452
-7.903 -9.354 1.453
-7.439 -8.963 1.518
-8.680 -9.705 1.027
-8.680 -9.705 1.027
-8.680 -9.705 1.027
-8.680 -9.705 1.027
-7.989 -8.858 0.869
-7.520 -8.455 0.939
-8.680 -9.705 1.027
-7.130 -8.967 1.835
-7.294 -8.924 1.624
-7.441 -8.962 1.516
-7.989 -8.858 0.870
-8.678 -9.709 1.034
-7.297 -8.156 0.860
-7.989 -8.858 0.870
-7.989 -8.858 0.870
-7.326 -8.631 1.305
-8.681 -9.705 1.027
-7.975 -8.860 0.885
-8.684 -9.709 1.027
-8.684 -9.708 1.027
-7.178 -8.113 0.938
-7.989 -8.858 0.870
-7.975 -8.860 0.885
-7.876 -9.356 1.480
-8.678 -9.709 1.034
-8.678 -9.709 1.034
-8.678 -9.709 1.034
-8.678 -9.709 1.034
-8.635 -9.201 0.565
-8.635 -9.201 0.565
-6.291 -7.556 1.267
-7.493 -9.073 1.574
-8.190 -8.845 0.646
-7.832 -9.114 1.281
-7.902 -9.355 1.453
-7.989 -8.858 0.870
-7.540 -9.027 1.490
-7.326 -8.631 1.304
-8.636 -9.200 0.564
-7.902 -9.355 1.453
-8.684 -9.708 1.027
-7.902 -9.354 1.453
-7.902 -9.354 1.453
-8.678 -9.709 1.034
-7.405 -8.962 1.552
-8.635 -9.201 0.565
-7.832 -9.114 1.281
-8.635 -9.201 0.565
-8.635 -9.201 0.565
-7.902 -9.355 1.453
-7.520 -8.455 0.938
-8.635 -9.201 0.565
-7.902 -9.354 1.453
-7.481 -8.976 1.495
-8.635 -9.201 0.565
-8.635 -9.201 0.565
-7.902 -9.355 1.453
-8.023 -8.851 0.829
-7.928 -8.824 0.897
-7.928 -8.824 0.897
-8.681 -9.705 1.027
-7.902 -9.354 1.453
-8.635 -9.201 0.565
-7.902 -9.355 1.453
-7.989 -8.858 0.870
-8.023 -8.851 0.829
-7.902 -9.355 1.453
-7.519 -8.455 0.939
-8.637 -9.200 0.563
-8.637 -9.200 0.563
-8.637 -9.200 0.563
-7.519 -8.455 0.939
-8.025 -8.850 0.827
-8.025 -8.850 0.827
-8.025 -8.850 0.827
-8.025 -8.850 0.827
-7.990 -8.858 0.869
-8.630 -9.706 1.078
-7.903 -9.355 1.453
-8.678 -9.709 1.034
-7.130 -8.966 1.835
-8.631 -9.706 1.078
-8.023 -8.851 0.829
-6.958 -9.031 2.070
-8.023 -8.851 0.829
-7.130 -8.966 1.835
-8.146 -8.537 0.390
-7.989 -8.858 0.870
-7.872 -9.350 1.479
-8.684 -9.708 1.027
-8.684 -9.708 1.027
-7.903 -9.355 1.454
-8.631 -9.706 1.078
-8.023 -8.851 0.829
-7.893 -8.832 0.939
-8.023 -8.851 0.828
-7.903 -9.355 1.453
-7.486 -8.960 1.469
-8.630 -9.706 1.079
-7.903 -9.355 1.453
-7.989 -8.858 0.870
-7.903 -9.355 1.453
-7.989 -8.858 0.870