-15.644 -8.302 -8.241
-17.424 -10.317 -7.152
-15.554 -8.289 -8.185
-14.011 -8.457 -5.762
-15.541 -8.292 -8.170
-14.201 -8.401 -5.998
-17.859 -10.191 -7.818
-16.518 -9.710 -6.829
-17.425 -10.317 -7.153
-14.011 -8.457 -5.762
-15.541 -8.292 -8.170
-15.828 -9.412 -6.656
-14.017 -8.456 -5.769
-15.570 -8.311 -8.152
-16.115 -9.644 -6.822
-15.541 -8.292 -8.170
-14.201 -8.401 -5.998
-15.540 -8.292 -8.169
-15.540 -8.292 -8.169
-14.499 -9.912 -4.587
-15.909 -9.397 -6.757
-14.364 -10.366 -3.982
-16.523 -9.710 -6.834
-14.228 -9.360 -4.903
-8.209 -9.230 1.044
-11.472 -6.004 -6.920
-8.209 -9.230 1.044
-14.018 -10.012 -3.998
-14.483 -10.360 -4.108
-14.312 -8.409 -6.105
-16.164 -9.636 -6.880
-16.164 -9.636 -6.880
-16.787 -9.660 -7.153
-16.787 -9.660 -7.153
-14.450 -9.902 -4.547
-16.274 -7.812 -9.104
-13.964 -9.394 -4.598
-15.721 -8.283 -8.346
-7.848 -9.223 1.399
-11.618 -5.997 -7.066
-16.604 -9.676 -6.954
-14.298 -9.356 -4.976
-8.120 -9.188 1.091
-13.983 -9.392 -4.617
-11.922 -7.569 -4.919
-13.983 -9.393 -4.617
-14.483 -10.360 -4.108
-16.264 -9.620 -7.002
-14.583 -10.042 -4.599
-14.098 -9.398 -4.725
-11.572 -5.997 -7.021
-7.854 -9.221 1.389
-7.982 -9.249 1.289
-14.530 -9.949 -4.582
-8.261 -9.387 1.148
-13.982 -9.393 -4.617
-13.982 -9.393 -4.617
-16.264 -9.620 -7.002
-14.618 -10.360 -4.242
-15.725 -8.283 -8.352
-16.264 -9.620 -7.001
-16.277 -7.812 -9.108
-8.261 -9.387 1.148
-13.982 -9.393 -4.616
-7.503 -9.111 1.630
-7.184 -8.766 1.604
-13.695 -9.473 -4.282
-14.582 -10.042 -4.598
-14.218 -9.387 -4.854
-14.618 -10.360 -4.242
-14.482 -10.360 -4.107
-14.582 -10.042 -4.598
-14.482 -10.360 -4.107
-7.711 -9.136 1.448
-11.572 -5.997 -7.022
-15.604 -9.389 -6.493
-15.698 -8.263 -8.371
-12.869 -7.565 -5.853
-16.266 -9.620 -7.004
-7.981 -9.249 1.290
-14.391 -7.211 -7.954
-7.711 -9.136 1.448
-8.119 -9.189 1.093
-13.864 -9.389 -4.503
-16.277 -7.812 -9.108
-11.573 -5.997 -7.022
-14.531 -9.949 -4.582
-7.246 -8.597 1.374
-7.385 -8.726 1.364
-13.864 -9.389 -4.504
-15.698 -8.263 -8.371
-14.089 -9.400 -4.714
-16.779 -9.662 -7.144
-14.488 -8.361 -6.320
-16.166 -9.636 -6.882
-7.366 -8.636 1.292
-11.297 -5.996 -6.757
-15.786 -8.276 -8.421
-14.091 -9.399 -4.717
-14.621 -10.360 -4.245
-14.585 -10.042 -4.601
-16.267 -9.620 -7.004
-16.461 -8.884 -7.602
-16.784 -9.662 -7.150
-14.695 -9.733 -5.276
-18.486 -10.225 -8.403
-18.486 -10.225 -8.403
-13.992 -7.228 -7.555
-16.784 -9.662 -7.150
-16.784 -9.662 -7.150
-11.297 -5.996 -6.757
-15.786 -8.276 -8.421
-15.699 -8.263 -8.372
-16.770 -8.132 -9.140
-13.824 -9.673 -4.139
-16.783 -9.662 -7.148
-15.681 -8.295 -8.287
-15.681 -8.295 -8.287
-16.778 -9.662 -7.143
-14.361 -9.969 -4.385
-7.809 -9.309 1.523
-15.681 -8.295 -8.287
-16.778 -9.662 -7.143
-14.299 -9.356 -4.977
-13.974 -9.394 -4.607
-13.687 -9.475 -4.273
-13.687 -9.475 -4.273
-16.948 -8.148 -9.300
-13.694 -9.473 -4.281
-8.050 -9.398 1.359
-16.264 -9.620 -7.002
-13.982 -9.393 -4.617
-14.482 -10.360 -4.107
-16.116 -7.797 -8.950
-11.637 -5.990 -7.093
-16.265 -9.620 -7.002
-13.982 -9.393 -4.617
-15.783 -8.276 -8.417
-14.575 -10.043 -4.590
-7.709 -9.137 1.450
-7.406 -8.567 1.182
-14.826 -10.043 -4.842
-15.783 -8.276 -8.417
-11.285 -6.002 -6.738
-15.699 -8.263 -8.372
-14.478 -10.360 -4.103
-13.689 -9.475 -4.274
-16.267 -9.620 -7.004
-13.697 -9.473 -4.284
-8.003 -9.200 1.219
-7.410 -8.565 1.177
-7.982 -9.235 1.276
-16.949 -8.148 -9.301
-14.620 -10.360 -4.245
-14.024 -9.382 -4.666
-14.527 -10.336 -4.175
-14.392 -7.211 -7.955
-16.948 -8.148 -9.300
-14.484 -10.360 -4.109
-7.854 -9.221 1.390
-12.676 -5.930 -8.187
-8.229 -9.227 1.020
-16.277 -7.812 -9.107
-16.264 -9.620 -7.001
-14.584 -10.042 -4.600
-7.384 -8.726 1.365
-7.438 -8.617 1.201
-8.050 -9.398 1.358
-14.590 -9.952 -4.639
-14.584 -10.042 -4.600
-7.649 -9.095 1.467
-7.711 -9.136 1.447
-11.297 -5.996 -6.757
-7.551 -9.376 1.848
-16.264 -9.620 -7.001
-13.696 -9.473 -4.284
-14.099 -9.398 -4.726
-16.264 -9.620 -7.002
-12.676 -5.930 -8.187
-16.264 -9.620 -7.002
-8.050 -9.398 1.358
-13.696 -9.473 -4.284
-14.779 -9.722 -5.376
-14.099 -9.398 -4.726
-12.870 -7.565 -5.853
-8.176 -9.385 1.230
-16.273 -7.813 -9.102
-14.827 -10.043 -4.843
-14.484 -10.360 -4.109
-13.985 -9.392 -4.619
-14.062 -9.391 -4.698
-14.608 -10.355 -4.238
-14.216 -9.389 -4.853
-14.216 -9.389 -4.853
-7.650 -9.100 1.470
-7.194 -8.719 1.547
-16.346 -9.606 -7.102
-16.474 -8.789 -7.932
-8.181 -9.385 1.226
-15.860 -8.253 -8.522
-17.105 -8.125 -9.480
-16.919 -9.613 -7.336
-15.674 -8.259 -8.345
-21.395 -9.611 -11.871
-14.202 -9.954 -4.241
-7.707 -9.272 1.588
-13.189 -8.920 -4.367
-13.943 -10.416 -3.509
-13.099 -8.175 -5.064
-7.420 -8.576 1.178
-8.259 -9.387 1.149
-8.259 -9.387 1.149
-7.678 -9.093 1.437
-14.090 -9.399 -4.717
-16.262 -9.620 -6.999
-14.092 -9.398 -4.719
-7.981 -9.236 1.278
-7.438 -8.617 1.201
-8.117 -9.188 1.094
-16.879 -8.811 -8.334
-7.384 -8.726 1.366
-12.674 -5.930 -8.185
-16.110 -7.798 -8.943
-14.018 -9.383 -4.659
-7.475 -9.130 1.677
-16.263 -9.620 -7.000
-16.263 -9.620 -7.000
-7.649 -9.095 1.467
-13.861 -9.389 -4.501
-14.479 -10.360 -4.104
-12.062 -7.553 -5.072
-16.280 -9.610 -7.019
-7.410 -8.565 1.177
-13.469 -8.101 -5.673
-7.693 -9.307 1.637
-7.640 -9.154 1.538
-14.478 -10.360 -4.103
-7.373 -8.733 1.383
-13.693 -9.473 -4.280
-13.469 -8.101 -5.673
-14.479 -10.360 -4.104
-13.819 -9.673 -4.134
-18.268 -10.212 -8.201
-14.370 -9.974 -4.390
-14.494 -9.914 -4.576
-16.142 -7.843 -8.935
-16.869 -8.828 -8.289
-6.531 -9.039 2.530
-16.776 -9.664 -7.138
-15.692 -10.256 -5.438
-8.411 -9.490 1.102
-7.668 -9.294 1.649
-14.484 -8.361 -6.316
-16.600 -9.678 -6.948
-16.838 -8.174 -9.151
-7.337 -8.578 1.263
-16.085 -7.844 -8.878
-14.359 -9.969 -4.384
-12.570 -7.621 -5.510
-14.221 -7.227 -7.778
-15.679 -8.296 -8.284
-7.334 -8.579 1.267
-6.910 -9.040 2.154
-16.772 -9.663 -7.136
-14.954 -9.490 -5.658
-7.667 -9.295 1.651
-16.185 -8.844 -7.576
-8.393 -9.490 1.120
-7.317 -8.646 1.351
-16.000 -7.852 -8.785
-13.273 -9.745 -3.589
-14.486 -8.361 -6.318
-14.835 -9.101 -5.751
-8.238 -9.468 1.254
-16.776 -9.663 -7.140
-15.597 -8.282 -8.242
-14.001 -9.971 -4.023
-7.649 -9.266 1.639
-8.395 -9.490 1.118
-12.401 -5.970 -7.883
-14.420 -9.974 -4.441
-7.320 -8.753 1.456
-13.268 -9.591 -3.696
-16.413 -8.891 -7.548
-7.337 -8.578 1.263
-14.486 -8.360 -6.319
-13.891 -9.459 -4.459
-12.380 -5.971 -7.864
-13.576 -8.492 -5.998
-7.653 -9.264 1.633
-14.399 -9.978 -4.415
-7.863 -9.100 1.260
-8.178 -9.388 1.231
-18.270 -10.212 -8.203
-16.182 -9.625 -6.900
-16.169 -9.636 -6.885
-14.486 -8.360 -6.318
-13.577 -8.493 -6.003
-12.315 -5.978 -7.791
-14.036 -7.220 -7.608
-7.649 -9.106 1.478
-7.384 -8.727 1.367
-14.152 -9.350 -4.838
-13.692 -9.473 -4.278
-13.676 -8.475 -6.126
-13.978 -9.393 -4.612
-14.325 -10.359 -3.950
-11.295 -5.997 -6.754
-13.981 -9.393 -4.615
-8.226 -9.241 1.038
-16.778 -9.663 -7.141
-16.202 -8.840 -7.597
-7.994 -9.222 1.250
-14.597 -10.361 -4.220
-11.568 -5.997 -7.016
-14.569 -10.043 -4.583
-13.606 -10.122 -3.471
-16.266 -9.620 -7.004
-14.005 -9.384 -4.645
-14.727 -9.724 -5.320
-14.309 -10.360 -3.933
-16.264 -9.620 -7.002
-13.683 -9.473 -4.270
-7.533 -9.378 1.868
-7.372 -8.733 1.384
-13.809 -9.693 -4.105
-16.264 -9.620 -7.001
-13.965 -9.394 -4.599
-13.683 -9.473 -4.269
-16.264 -9.620 -7.001
-8.256 -9.465 1.232
-16.944 -8.149 -9.294
-15.697 -8.263 -8.370
-14.561 -10.044 -4.574
-16.267 -9.620 -7.004
-7.384 -8.727 1.366
-14.171 -9.948 -4.224
-8.177 -9.388 1.232
-8.177 -9.388 1.232
-16.273 -7.813 -9.103
-13.673 -8.477 -6.126
-13.206 -9.744 -3.524
-12.861 -7.566 -5.844
-14.937 -9.984 -5.008
-15.784 -8.276 -8.417
-14.517 -9.949 -4.567
-19.245 -8.322 -11.118
-7.998 -9.203 1.227
-7.998 -9.203 1.227
-13.463 -8.099 -5.669
-13.679 -9.473 -4.265
-16.944 -8.150 -9.293
-7.683 -9.889 2.226
-16.774 -9.665 -7.136
-13.592 -9.452 -4.173
-16.768 -8.180 -9.073
-16.880 -8.827 -8.303
-14.301 -8.410 -6.093
-16.126 -7.849 -8.913
-14.488 -8.361 -6.320
-16.778 -9.663 -7.142
-14.301 -8.410 -6.093
-8.051 -9.395 1.365
-16.778 -9.663 -7.142
-14.009 -9.969 -4.033
-15.624 -10.259 -5.367
-7.669 -9.294 1.648
-12.400 -5.970 -7.882
-6.905 -9.021 2.138
-21.522 -9.599 -12.010
-16.173 -9.635 -6.890
-19.040 -8.344 -10.889
-13.594 -9.452 -4.175
-14.219 -7.227 -7.778
-16.779 -9.663 -7.143
-6.901 -9.023 2.145
-16.157 -7.839 -8.955
-14.286 -9.927 -4.353
-21.523 -9.599 -12.011
-16.202 -8.840 -7.597
-14.695 -9.733 -5.276
-7.337 -8.578 1.262
-13.337 -8.937 -4.498
-7.337 -8.578 1.263
-16.230 -8.882 -7.376
-13.222 -8.930 -4.392
-16.174 -9.635 -6.891
-7.336 -8.667 1.353
-16.188 -9.624 -6.907
-18.272 -10.212 -8.204
-14.301 -8.410 -6.093
-14.488 -8.360 -6.320
-11.297 -5.996 -6.757
-7.410 -8.565 1.177
-11.573 -5.996 -7.023
-14.135 -7.225 -7.696
-7.193 -8.721 1.551
-14.581 -10.042 -4.597
-14.315 -7.215 -7.878
-7.374 -8.733 1.383
-15.060 -9.470 -5.790
-16.775 -9.665 -7.137
-16.158 -7.839 -8.956
-17.164 -9.131 -8.055
-16.880 -8.827 -8.304
-16.342 -9.726 -6.636
-7.132 -8.634 1.525
-8.388 -9.491 1.126
-14.493 -9.533 -5.169
-14.224 -9.360 -4.899
-7.431 -8.618 1.210
-7.239 -8.598 1.382
-13.619 -9.475 -4.199
-14.017 -9.403 -4.639
-7.961 -9.239 1.300
-14.171 -9.393 -4.799
-15.564 -9.397 -6.442
-7.943 -9.204 1.283
-16.811 -8.821 -8.249
-13.882 -7.268 -7.453
-8.138 -9.392 1.275
-16.216 -9.628 -6.943
-14.016 -10.010 -3.998
-14.099 -9.398 -4.726
-16.948 -8.148 -9.299
-8.260 -9.387 1.148
-12.674 -5.931 -8.185
-17.209 -9.123 -8.107
-8.050 -9.398 1.359
-8.177 -9.386 1.230
-7.981 -9.236 1.278
-15.949 -9.389 -6.810
-13.639 -9.473 -4.232
-15.896 -10.250 -5.647
-7.438 -8.617 1.201
-7.409 -8.565 1.178
-7.982 -9.235 1.277
-13.818 -9.690 -4.116
-7.982 -9.235 1.277
-14.778 -9.722 -5.374
-21.676 -9.584 -12.178
-21.676 -9.584 -12.178
-13.983 -9.393 -4.617
-13.675 -8.476 -6.128
-15.607 -9.388 -6.497
-7.385 -8.726 1.364
-13.696 -9.473 -4.283
-13.696 -9.473 -4.283
-15.607 -9.388 -6.497
-15.059 -9.470 -5.788
-13.695 -9.473 -4.282
-13.490 -8.100 -5.696
-13.625 -10.115 -3.496
-16.277 -7.812 -9.107
-16.201 -8.826 -7.626
-16.978 -8.812 -8.424
-14.909 -9.105 -5.822
-15.725 -8.283 -8.351
-16.111 -7.827 -8.926
-16.282 -8.830 -7.695
-17.101 -10.275 -6.832
-13.813 -9.393 -4.449
-16.742 -8.136 -9.106
-16.248 -7.816 -9.071
-15.029 -9.475 -5.753
-14.325 -7.217 -7.884
-14.325 -7.217 -7.884
-13.940 -9.395 -4.572
-7.388 -8.590 1.224
-16.167 -8.831 -7.585
-11.560 -6.001 -7.005
-13.526 -10.164 -3.350
-7.430 -8.619 1.211
-16.263 -8.830 -7.674
-12.919 -7.562 -5.905
-16.921 -8.152 -9.266
-13.652 -9.476 -4.235
-7.227 -8.720 1.516
-14.437 -10.362 -4.060
-8.178 -9.386 1.229
-13.684 -9.307 -4.400
-14.054 -9.401 -4.679
-6.822 -9.297 2.496
-11.584 -5.992 -7.037
-21.608 -9.586 -12.107
-14.382 -7.219 -7.925
-17.054 -8.780 -8.547
-14.098 -9.384 -4.742
-15.178 -9.449 -5.933
-16.126 -10.061 -6.070
-17.798 -9.114 -8.709
-14.313 -7.224 -7.855
-6.944 -9.018 2.097
-8.059 -9.397 1.348
-8.059 -9.397 1.348
-14.097 -9.384 -4.741
-16.474 -8.790 -7.932
-14.334 -9.378 -4.980
-14.213 -9.389 -4.850
-15.567 -9.381 -6.373
-14.212 -9.389 -4.849
-13.634 -10.173 -3.450
-16.263 -7.776 -9.130
-13.811 -9.463 -4.408
-14.313 -7.223 -7.855
-13.926 -9.673 -4.242
-14.383 -7.219 -7.926
-17.054 -8.780 -8.547
-17.797 -9.113 -8.708
-16.124 -10.061 -6.068
-17.054 -8.780 -8.547
-14.737 -9.493 -5.466
-14.211 -9.390 -4.847
-13.754 -9.463 -4.357
-17.616 -9.099 -8.540
-14.313 -7.224 -7.855
-16.296 -9.608 -7.048
-14.809 -9.709 -5.423
-6.937 -9.003 2.089
-21.686 -9.587 -12.185
-16.648 -8.844 -7.836
-13.926 -9.673 -4.242
-7.866 -9.218 1.375
-13.754 -9.463 -4.357
-17.616 -9.099 -8.541
-14.737 -9.492 -5.467
-13.810 -9.463 -4.407
-21.687 -9.587 -12.185
-13.634 -10.173 -3.450
-14.097 -9.384 -4.741
-14.168 -9.375 -4.816
-13.810 -9.463 -4.407
-7.739 -9.861 2.143
-14.737 -9.492 -5.466
-14.680 -10.035 -4.707
-17.797 -9.113 -8.708
-16.124 -10.062 -6.067
-14.737 -9.492 -5.467
-11.942 -7.562 -4.943
-13.752 -8.453 -6.232
-7.474 -8.624 1.172
-21.687 -9.587 -12.185
-20.261 -8.598 -11.723
-21.609 -9.586 -12.108
-16.124 -10.061 -6.068
-14.313 -7.224 -7.855
-13.752 -8.453 -6.232
-7.656 -9.154 1.522
-17.798 -9.114 -8.709
-14.098 -9.384 -4.742
-14.383 -7.219 -7.926
-6.940 -9.017 2.100
-14.313 -7.224 -7.855
-14.097 -9.384 -4.741
-7.388 -8.724 1.359
-13.979 -9.380 -4.628
-14.738 -9.492 -5.467
-14.738 -9.492 -5.467
-8.008 -9.201 1.215
-20.523 -8.595 -11.987
-13.926 -9.673 -4.242
-14.212 -9.389 -4.848
-7.667 -9.250 1.604
-14.137 -9.373 -4.789
-17.106 -8.125 -9.481
-13.767 -8.467 -6.195
-14.382 -7.219 -7.925
-13.809 -9.464 -4.406
-14.012 -9.321 -4.715
-14.212 -9.390 -4.848
-8.008 -9.201 1.215
-7.388 -8.725 1.360
-11.586 -5.992 -7.040
-14.382 -7.219 -7.926
-14.382 -7.219 -7.926
-14.658 -9.939 -4.720
-14.099 -9.390 -4.737
-13.812 -9.463 -4.409
-7.866 -9.218 1.375
-16.377 -8.790 -7.843
-6.659 -9.179 2.543
-14.213 -9.389 -4.849
-14.139 -9.373 -4.790
-16.315 -8.793 -7.775
-8.059 -9.397 1.348
-15.867 -8.252 -8.529
-16.459 -8.794 -7.913
-8.408 -9.487 1.103
-16.373 -8.791 -7.838
-14.010 -9.322 -4.714
-13.634 -10.174 -3.450
-12.692 -5.925 -8.208
-17.054 -8.780 -8.547
-14.098 -9.384 -4.741
-7.724 -9.137 1.436
-14.382 -7.219 -7.925
-7.866 -9.218 1.376
-8.059 -9.397 1.348
-14.313 -7.223 -7.855
-14.313 -7.223 -7.856
-14.098 -9.384 -4.741
-17.617 -9.099 -8.542
-7.194 -8.719 1.548
-14.756 -9.711 -5.365
-13.356 -8.173 -5.480
-7.667 -9.249 1.604
-14.097 -9.384 -4.741
-7.451 -9.286 1.858
-7.502 -9.215 1.736
-13.871 -7.273 -7.438
-15.300 -9.428 -6.046
-15.858 -7.835 -8.642
-7.850 -9.288 1.460
-13.644 -9.428 -4.251
-16.037 -8.851 -7.428
-14.916 -9.494 -5.614
-20.172 -8.622 -11.610
-15.868 -10.254 -5.615
-13.561 -9.439 -4.158
-12.405 -5.961 -7.897
-13.867 -7.274 -7.433
-21.411 -9.609 -11.887
-13.867 -7.274 -7.433
-20.178 -8.621 -11.616
-13.176 -9.747 -3.491
-21.410 -9.609 -11.887
-7.374 -8.634 1.282
-21.411 -9.609 -11.887
-13.556 -8.496 -5.973
-13.867 -7.274 -7.433
-16.073 -8.845 -7.468
-12.951 -10.342 -2.596
-7.848 -9.253 1.427
-12.951 -10.342 -2.596
-21.411 -9.609 -11.888
-16.172 -8.845 -7.559
-7.301 -8.648 1.371
-18.342 -10.242 -8.238
-14.214 -7.227 -7.770
-21.428 -9.600 -11.915
-7.810 -9.844 2.054
-20.378 -8.595 -11.845
-14.410 -7.212 -7.967
-7.743 -9.853 2.130
-8.004 -9.202 1.220
-16.200 -8.826 -7.624
-16.298 -8.826 -7.714
-14.341 -7.217 -7.895
-14.341 -7.217 -7.895
-15.483 -10.267 -5.219
-16.170 -8.832 -7.574
-15.439 -9.406 -6.215
-17.131 -9.124 -8.029
-17.383 -9.138 -8.268
-15.439 -9.406 -6.215
-14.474 -10.361 -4.098
-19.005 -8.330 -10.870
-7.851 -9.222 1.393
-16.209 -7.816 -9.035
-13.832 -9.693 -4.127
-15.055 -9.471 -5.783
-14.581 -10.042 -4.596
-14.410 -7.212 -7.966
-11.923 -7.570 -4.918
-13.591 -10.173 -3.407
-21.685 -9.584 -12.188
-7.468 -9.277 1.833
-7.667 -9.144 1.500
-21.606 -9.583 -12.110
-19.138 -8.331 -11.003
-13.839 -9.677 -4.150
-14.471 -10.036 -4.489
-14.471 -10.036 -4.489
-14.341 -7.217 -7.895
-13.975 -9.394 -4.608
-14.341 -7.217 -7.895
-14.410 -7.212 -7.966
-16.154 -10.146 -6.010
-15.740 -9.019 -6.735
-14.151 -7.233 -7.688
-14.401 -7.222 -7.935
-20.393 -8.596 -11.857
-15.930 -10.067 -5.869
-15.740 -9.019 -6.735
-21.687 -9.579 -12.191
-7.651 -9.102 1.472
-15.567 -9.381 -6.372
-21.560 -9.585 -12.060
-13.808 -9.463 -4.405
-14.332 -7.226 -7.866
-14.206 -9.390 -4.842
-21.617 -9.586 -12.117
-21.696 -9.586 -12.194
-21.696 -9.586 -12.194
-13.669 -10.154 -3.505
-9.220 -10.449 1.186
-13.669 -10.154 -3.505
-14.332 -7.226 -7.867
-7.475 -8.988 1.535
-16.503 -8.837 -7.700
-14.207 -9.390 -4.843
-16.503 -8.837 -7.700
-14.739 -9.492 -5.469
-7.351 -8.626 1.299
-21.696 -9.586 -12.195
-17.473 -9.085 -8.410
-21.696 -9.586 -12.195
-19.190 -8.324 -11.060
-15.810 -9.018 -6.806
-17.799 -9.114 -8.711
-19.189 -8.325 -11.060
-8.268 -9.388 1.141
-7.680 -9.144 1.488
-16.129 -10.061 -6.073
-15.179 -9.449 -5.935
-16.129 -10.061 -6.073
-13.564 -8.122 -5.748
-16.833 -8.853 -8.010
-20.452 -8.595 -11.916
-14.401 -7.222 -7.936
-14.332 -7.226 -7.866
-21.695 -9.586 -12.194
-17.799 -9.114 -8.710
-16.129 -10.061 -6.073
-16.380 -8.790 -7.847
-21.617 -9.586 -12.117
-17.799 -9.114 -8.710
-16.478 -8.789 -7.937
-7.323 -8.575 1.275
-16.477 -8.789 -7.936
-21.695 -9.586 -12.194
-14.332 -7.225 -7.866
-20.269 -8.597 -11.732
-14.332 -7.225 -7.867
-13.493 -8.115 -5.685
-14.332 -7.225 -7.867
-14.401 -7.222 -7.936
-16.503 -8.837 -7.700
-16.130 -10.061 -6.074
-16.478 -8.789 -7.937
-14.594 -8.397 -6.349
-19.189 -8.325 -11.060
-14.401 -7.222 -7.936
-20.394 -8.596 -11.858
-16.128 -10.061 -6.071
-7.731 -9.136 1.428
-13.942 -9.676 -4.255
-9.208 -10.450 1.199
-14.401 -7.221 -7.936
-13.644 -8.444 -6.151
-13.740 -9.695 -4.107
-20.532 -8.594 -11.998
-15.567 -9.381 -6.373
-14.401 -7.222 -7.936
-15.930 -10.067 -5.869
-14.332 -7.226 -7.866
-16.129 -10.061 -6.073
-20.452 -8.595 -11.916
-16.415 -8.792 -7.868
-16.477 -8.789 -7.936
-17.799 -9.114 -8.711
-17.618 -9.099 -8.543
-16.503 -8.837 -7.700
-7.741 -9.855 2.134
-7.680 -9.144 1.488
-16.130 -10.061 -6.074
-21.560 -9.585 -12.060
-7.732 -9.136 1.427
-14.332 -7.225 -7.867
-7.351 -8.626 1.299
-13.740 -9.695 -4.107
-21.617 -9.586 -12.117
-17.801 -9.114 -8.712
-10.968 -7.201 -4.011
-15.810 -9.018 -6.806
-14.402 -7.221 -7.937
-14.093 -9.384 -4.737
-16.477 -8.789 -7.936
-13.564 -8.122 -5.748
-16.431 -7.790 -9.295
-19.189 -8.324 -11.060
-10.814 -7.187 -3.879
-16.478 -8.789 -7.937
-14.594 -8.396 -6.350
-21.696 -9.586 -12.195
-14.594 -8.396 -6.350
-21.696 -9.586 -12.195
-20.452 -8.595 -11.916
-14.401 -7.221 -7.937
-7.433 -8.560 1.149
-21.559 -9.585 -12.060
-13.937 -9.692 -4.233
-14.332 -7.225 -7.867
-21.696 -9.586 -12.194
-13.564 -8.122 -5.748
-13.417 -8.165 -5.553
-20.394 -8.596 -11.858
-14.594 -8.396 -6.350
-16.359 -7.795 -9.219
-20.394 -8.596 -11.858
-15.932 -10.067 -5.872
-7.684 -9.881 2.217
-13.418 -8.166 -5.553
-14.401 -7.221 -7.936
-21.435 -9.582 -11.938
-20.452 -8.595 -11.917
-20.452 -8.595 -11.917
-13.740 -9.695 -4.107
-15.676 -9.015 -6.675
-16.322 -10.141 -6.182
-14.323 -8.368 -6.153
-13.725 -7.286 -7.284
-7.652 -10.009 2.377
-13.725 -7.286 -7.284
-17.756 -9.125 -8.656
-21.284 -9.622 -11.747
-15.459 -7.965 -7.678
-16.314 -8.813 -7.741
-14.135 -7.232 -7.692
-18.965 -8.347 -10.807
-12.183 -6.605 -5.774
-21.322 -9.605 -11.802
-21.460 -9.606 -11.939
-14.589 -9.517 -5.287
-13.397 -8.933 -4.569
-11.421 -6.025 -6.855
-7.801 -9.860 2.078
-7.474 -9.129 1.677
-17.618 -9.100 -8.542
-20.422 -8.598 -11.884
-13.900 -9.675 -4.214
-14.354 -7.216 -7.909
-13.350 -8.121 -5.528
-14.105 -7.230 -7.657
-20.501 -8.596 -11.964
-14.354 -7.217 -7.909
-19.104 -8.329 -10.970
-19.154 -8.324 -11.024
-7.440 -8.571 1.152
-16.373 -11.039 -5.345
-14.430 -10.718 -3.720
-16.499 -11.022 -5.489
-15.973 -9.613 -6.439
-16.383 -11.037 -5.362
-16.383 -11.037 -5.362
-16.383 -11.037 -5.362
-16.876 -11.209 -5.661
-16.267 -11.281 -4.975
-13.267 -11.314 -2.076
-12.866 -9.446 -3.629
-16.261 -11.281 -4.968
-15.846 -10.645 -5.261
-15.941 -9.625 -6.395
-16.866 -11.209 -5.651
-16.522 -10.043 -6.632
-16.397 -9.517 -6.958
-15.683 -9.724 -6.037
-12.850 -9.449 -3.610
-16.139 -11.712 -4.436
-16.059 -11.350 -4.700
-15.760 -9.622 -6.219
-13.270 -11.314 -2.080
-15.944 -9.624 -6.399
-16.434 -11.212 -5.217
-15.537 -12.417 -3.144
-15.962 -9.608 -6.433
-16.378 -11.039 -5.355
-15.962 -9.608 -6.433
-16.509 -10.038 -6.621
-15.701 -9.708 -6.072
-9.274 -10.530 1.277
-16.268 -11.280 -4.977
-15.962 -9.608 -6.433
-15.962 -9.608 -6.433
-15.790 -10.652 -5.197
-16.268 -11.279 -4.978
-15.960 -9.609 -6.431
-11.305 -12.010 0.713
-11.305 -12.010 0.713
-15.396 -12.377 -3.039
-16.646 -11.219 -5.420
-12.869 -9.446 -3.633
-16.268 -11.280 -4.977
-15.960 -9.609 -6.431
-16.268 -11.280 -4.977
-16.970 -11.209 -5.755
-15.849 -10.645 -5.263
-15.227 -12.380 -2.870
-15.964 -9.607 -6.437
-15.790 -10.652 -5.197
-15.790 -10.652 -5.197
-16.434 -11.212 -5.216
-16.241 -11.697 -4.550
-15.977 -10.648 -5.387
-16.149 -11.328 -4.811
-15.850 -10.645 -5.264
-16.646 -11.219 -5.420
-15.703 -9.707 -6.075
-12.947 -11.270 -1.799
-15.704 -9.706 -6.078
-11.306 -12.009 0.710
-15.288 -10.543 -4.871
-15.704 -9.706 -6.078
-16.098 -11.703 -4.400
-16.877 -11.208 -5.663
-11.262 -12.011 0.756
-24.086 -8.306 -15.781
-16.414 -9.500 -6.993
-15.959 -9.607 -6.431
-12.796 -9.456 -3.547
-15.779 -9.604 -6.257
-13.300 -11.317 -2.106
-15.891 -12.405 -3.497
-15.698 -9.708 -6.070
-16.364 -11.040 -5.339
-16.402 -11.037 -5.382
-15.698 -9.708 -6.070
-16.064 -11.296 -4.758
-15.698 -9.708 -6.070
-16.768 -10.992 -5.777
-16.173 -11.328 -4.835
-14.601 -12.168 -2.485
-16.414 -9.500 -6.993
-16.472 -11.032 -5.443
-16.475 -11.026 -5.460
-15.697 -9.708 -6.068
-15.697 -9.708 -6.068
-15.960 -9.607 -6.432
-12.637 -11.074 -1.630
-16.314 -10.034 -6.425
-16.521 -10.033 -6.634
-16.188 -11.000 -5.194
-8.783 -10.073 1.311
-15.697 -9.708 -6.068
-13.208 -11.333 -1.996
-14.601 -12.168 -2.485
-16.665 -10.991 -5.680
-16.223 -11.010 -5.215
-16.526 -10.032 -6.640
-16.395 -11.032 -5.375
-12.812 -9.453 -3.566
-16.419 -11.214 -5.199
-15.266 -10.536 -4.859
-16.438 -11.031 -5.418
-16.793 -11.213 -5.570
-16.438 -11.031 -5.418
-15.696 -9.709 -6.066
-14.155 -10.778 -3.380
-15.944 -11.300 -4.634
-16.061 -11.296 -4.754
-12.430 -11.063 -1.437
-15.691 -9.709 -6.061
-11.260 -12.014 0.761
-16.185 -11.008 -5.179
-15.942 -9.613 -6.409
-15.690 -9.709 -6.061
-15.380 -12.384 -3.015
-14.590 -12.170 -2.472
-15.944 -9.612 -6.412
-15.944 -9.612 -6.412
-12.796 -9.456 -3.547
-15.771 -9.606 -6.248
-15.944 -9.612 -6.412
-16.488 -10.044 -6.593
-16.731 -11.212 -5.510
-16.416 -9.499 -6.996
-16.608 -10.996 -5.620
-9.621 -10.601 1.000
-11.304 -12.012 0.716
-16.183 -11.009 -5.177
-16.473 -11.026 -5.458
-16.413 -9.501 -6.990
-16.316 -11.042 -5.290
-9.621 -10.601 1.000
-14.155 -10.778 -3.380
-16.470 -11.032 -5.441
-15.768 -9.607 -6.244
-16.259 -11.278 -4.969
-13.998 -10.787 -3.213
-16.415 -9.500 -6.995
-16.302 -11.004 -5.299
-15.144 -12.380 -2.786
-16.533 -10.039 -6.644
-16.259 -11.005 -5.255
-15.901 -12.417 -3.495
-16.379 -11.034 -5.357
-12.432 -9.573 -3.203
-24.075 -8.306 -15.769
-16.411 -9.502 -6.988
-16.050 -11.350 -4.691
-16.258 -11.278 -4.969
-16.953 -11.211 -5.736
-9.080 -10.331 1.268
-9.080 -10.331 1.268
-12.543 -10.889 -1.676
-12.400 -9.575 -3.168
-16.632 -11.221 -5.404
-11.304 -12.011 0.715
-13.266 -11.317 -2.071
-15.692 -9.709 -6.062
-16.302 -11.004 -5.300
-16.223 -11.009 -5.216
-11.260 -12.014 0.761
-15.692 -9.709 -6.062
-14.156 -10.777 -3.382
-13.302 -11.313 -2.111
-15.689 -9.638 -6.120
-16.302 -11.004 -5.300
-15.946 -9.611 -6.415
-12.428 -9.574 -3.195
-8.731 -10.109 1.399
-16.373 -11.039 -5.345
-16.299 -11.003 -5.298
-12.531 -10.902 -1.650
-15.670 -9.722 -6.027
-14.143 -11.788 -2.346
-15.969 -10.651 -5.378
-12.527 -10.910 -1.637
-16.226 -11.007 -5.221
-15.670 -9.722 -6.027
-14.127 -10.779 -3.351
-16.308 -11.002 -5.307
-16.308 -11.002 -5.307
-16.442 -11.210 -5.226
-14.595 -9.933 -4.848
-11.983 -6.841 -5.504
-15.204 -9.388 -5.852
-11.983 -6.840 -5.505
-14.457 -9.432 -5.062
-16.783 -9.463 -7.491
-14.457 -9.432 -5.062
-15.331 -9.390 -5.976
-14.643 -9.930 -4.899
-15.622 -7.855 -7.790
-10.696 -9.251 -1.463
-16.782 -9.463 -7.490
-16.884 -9.464 -7.592
-11.983 -6.841 -5.504
-12.075 -6.840 -5.593
-14.457 -9.432 -5.062
-10.126 -9.518 -0.600
-11.983 -6.841 -5.505
-15.435 -10.481 -4.965
-15.204 -9.388 -5.852
-17.953 -10.582 -7.376
-15.204 -9.388 -5.852
-11.983 -6.840 -5.505
-10.128 -9.517 -0.601
-14.644 -9.930 -4.900
-16.884 -9.464 -7.592
-11.983 -6.841 -5.504
-11.983 -6.841 -5.504
-18.061 -10.584 -7.482
-10.127 -9.518 -0.600
-16.782 -9.463 -7.491
-15.260 -9.386 -5.911
-15.623 -7.855 -7.791
-11.983 -6.840 -5.505
-11.983 -6.840 -5.505
-11.983 -6.840 -5.505
-16.070 -9.322 -7.295
-10.132 -9.438 -0.684
-14.595 -9.933 -4.848
-16.728 -9.464 -7.435
-14.487 -9.435 -5.090
-12.076 -6.839 -5.595
-10.128 -9.517 -0.601
-16.728 -9.464 -7.435
-15.496 -10.479 -5.029
-15.511 -7.855 -7.678
-16.782 -9.463 -7.491
-9.515 -9.288 -0.208
-17.953 -10.582 -7.376
-11.984 -6.840 -5.505
-15.263 -9.386 -5.914
-15.623 -7.855 -7.791
-16.728 -9.464 -7.435
-9.515 -9.288 -0.208
-16.782 -9.463 -7.491
-14.643 -9.930 -4.899
-15.434 -10.478 -4.967
-17.953 -10.582 -7.376
-10.723 -9.157 -1.598
-17.953 -10.582 -7.376
-15.259 -9.386 -5.910
-11.983 -6.840 -5.505
-15.514 -7.854 -7.682
-10.723 -9.158 -1.597
-10.127 -9.518 -0.600
-15.260 -9.386 -5.910
-17.953 -10.582 -7.376
-12.075 -6.840 -5.594
-10.723 -9.157 -1.598
-16.728 -9.464 -7.435
-12.075 -6.840 -5.594
-14.644 -9.930 -4.900
-11.925 -6.845 -5.442
-11.925 -6.845 -5.442
-16.783 -9.463 -7.491
-14.487 -9.435 -5.090
-9.515 -9.288 -0.208
-14.457 -9.432 -5.062
-15.506 -7.856 -7.673
-15.622 -7.855 -7.790
-15.446 -7.880 -7.591
-10.132 -9.438 -0.684
-10.156 -9.525 -0.620
-15.553 -7.856 -7.720
-17.953 -10.582 -7.376
-16.885 -9.464 -7.592
-10.127 -9.518 -0.601
-16.728 -9.464 -7.435
-15.260 -9.386 -5.911
-15.434 -10.478 -4.967
-15.435 -10.481 -4.965
-17.953 -10.582 -7.376
-17.953 -10.582 -7.376
-16.728 -9.464 -7.435
-16.782 -9.463 -7.491
-16.728 -9.464 -7.435
-16.782 -9.463 -7.491
-11.925 -6.845 -5.442
-17.953 -10.582 -7.376
-18.061 -10.583 -7.482
-16.782 -9.463 -7.491
-10.127 -9.518 -0.600
-16.728 -9.464 -7.435
-15.260 -9.386 -5.911
-16.728 -9.464 -7.435
-16.728 -9.464 -7.435
-16.728 -9.464 -7.435
-16.728 -9.464 -7.435
-10.694 -9.270 -1.442
-15.260 -9.386 -5.911
-14.457 -9.432 -5.062
-10.126 -9.518 -0.600
-15.431 -10.479 -4.964
-15.623 -7.855 -7.791
-17.958 -10.589 -7.373
-18.061 -10.583 -7.482
-16.885 -9.464 -7.592
-15.577 -10.483 -5.106
-15.623 -7.855 -7.790
-16.885 -9.464 -7.592
-15.623 -7.855 -7.790
-16.782 -9.463 -7.491
-16.008 -9.328 -7.228
-9.460 -9.420 -0.022
-16.883 -9.465 -7.590
-15.327 -9.390 -5.972
-15.435 -10.481 -4.965
-14.642 -9.930 -4.898
-14.482 -9.436 -5.085
-9.980 -9.499 -0.477
-12.074 -6.840 -5.592
-16.728 -9.464 -7.435
-11.925 -6.845 -5.442
-16.728 -9.464 -7.435
-16.728 -9.464 -7.435
-16.728 -9.464 -7.435
-16.728 -9.464 -7.435
-18.061 -10.583 -7.482
-18.003 -10.582 -7.425
-15.259 -9.386 -5.910
-15.446 -7.880 -7.591
-15.204 -9.388 -5.852
-16.728 -9.464 -7.435
-16.185 -9.316 -7.413
-11.925 -6.845 -5.442
-10.183 -9.349 -0.823
-10.127 -9.444 -0.673
-15.622 -7.855 -7.790
-10.127 -9.518 -0.600
-15.622 -7.855 -7.790
-18.060 -10.584 -7.481
-16.728 -9.464 -7.435
-10.723 -9.157 -1.597
-15.446 -7.880 -7.591
-9.883 -9.569 -0.306
-10.132 -9.438 -0.684
-9.946 -9.575 -0.355
-9.460 -9.420 -0.022
-9.460 -9.420 -0.022
-15.435 -10.481 -4.965
-16.783 -9.463 -7.491
-10.127 -9.518 -0.601
-18.003 -10.582 -7.425
-15.622 -7.855 -7.790
-11.925 -6.845 -5.442
-16.728 -9.464 -7.435
-14.820 -8.516 -6.368
-15.689 -7.828 -7.885
-15.427 -9.344 -6.122
-14.736 -7.650 -7.098
-17.465 -9.805 -7.663
-16.764 -8.218 -8.981
-17.465 -9.805 -7.663
-15.689 -7.828 -7.885
-15.689 -7.828 -7.885
-14.669 -7.680 -7.001
-12.420 -5.167 -7.879
-17.465 -9.805 -7.663
-17.465 -9.805 -7.663
-15.404 -9.384 -6.056
-14.819 -8.516 -6.367
-15.427 -9.344 -6.122
-15.404 -9.384 -6.056
-17.542 -9.806 -7.740
-14.679 -7.679 -7.013
-15.704 -7.826 -7.901
-14.747 -7.649 -7.110
-15.704 -7.826 -7.901
-15.414 -9.382 -6.068
-14.417 -7.701 -6.727
-15.590 -7.857 -7.756
-15.585 -7.855 -7.753
-15.276 -9.348 -5.976
-15.253 -9.387 -5.910
-15.276 -9.348 -5.976
-14.535 -7.695 -6.851
-17.463 -9.805 -7.661
-14.726 -8.017 -6.847
-15.257 -9.386 -5.915
-15.765 -8.501 -7.304
-15.660 -7.830 -7.853
-15.188 -9.386 -5.848
-17.467 -9.805 -7.665
-14.707 -8.507 -6.256
-15.660 -7.830 -7.853
-15.263 -9.386 -5.922
-14.696 -8.015 -6.811
-16.767 -8.218 -8.985
-15.252 -9.388 -5.908
-15.660 -7.830 -7.853
-15.660 -7.830 -7.853
-14.706 -8.507 -6.254
-14.739 -8.015 -6.862
-15.610 -7.852 -7.781
-17.542 -9.805 -7.741
-17.482 -9.794 -7.691
-15.274 -9.384 -5.934
-15.624 -7.851 -7.797
-14.749 -8.014 -6.873
-14.749 -8.014 -6.873
-15.624 -7.851 -7.797
-17.482 -9.794 -7.691
-15.274 -9.384 -5.934
-12.414 -5.162 -7.874
-15.423 -10.498 -4.934
-14.822 -8.017 -6.945
-14.715 -8.507 -6.264
-14.674 -7.881 -6.814
-15.274 -9.384 -5.933
-15.048 -7.947 -7.229
-15.277 -9.384 -5.937
-14.681 -7.881 -6.820
-15.142 -9.383 -5.806
-16.909 -9.848 -7.062
-16.794 -8.225 -9.010
-15.612 -7.852 -7.783
-17.481 -9.794 -7.690
-17.481 -9.794 -7.690
-17.481 -9.794 -7.690
-15.270 -9.384 -5.930
-17.483 -9.794 -7.692
-15.773 -8.502 -7.310
-15.773 -8.502 -7.310
-15.191 -9.384 -5.853
-15.267 -10.497 -4.780
-15.269 -9.384 -5.929
-14.326 -9.450 -4.909
-17.542 -9.806 -7.740
-15.413 -10.498 -4.924
-15.021 -7.961 -7.195
-17.482 -9.794 -7.691
-17.482 -9.794 -7.691
-15.270 -9.384 -5.930
-17.483 -9.794 -7.692
-15.270 -9.384 -5.930
-17.483 -9.794 -7.692
-15.413 -10.498 -4.924
-11.925 -6.882 -5.392
-17.485 -9.794 -7.694
-16.794 -8.226 -9.010
-15.136 -9.385 -5.797
-17.487 -9.794 -7.696
-15.275 -9.384 -5.935
-15.197 -9.384 -5.859
-12.418 -5.162 -7.878
-16.794 -8.225 -9.011
-16.890 -9.023 -9.189
-17.487 -9.794 -7.696
-17.487 -9.794 -7.696
-17.487 -9.794 -7.696
-10.703 -9.228 -1.496
-10.674 -9.290 -1.400
-15.623 -7.851 -7.796
-16.773 -9.865 -6.912
-10.703 -9.228 -1.496
-11.925 -6.883 -5.391
-17.496 -9.794 -7.705
-15.334 -10.496 -4.847
-17.504 -9.793 -7.714
-17.565 -9.804 -7.764
-11.990 -8.072 -4.176
-9.252 -9.526 0.293
-15.333 -10.496 -4.847
-16.784 -9.864 -6.923
-7.463 -8.862 1.419
-7.463 -8.862 1.419
-16.084 -9.719 -6.443
-16.807 -8.226 -9.023
-15.190 -9.385 -5.850
-10.491 -9.084 -1.454
-16.805 -8.226 -9.022
-16.771 -9.867 -6.908
-16.805 -8.226 -9.022
-17.498 -9.794 -7.707
-13.770 -7.714 -6.581
-7.463 -8.862 1.420
-15.275 -9.383 -5.936
-16.805 -8.226 -9.022
-16.771 -9.867 -6.908
-15.682 -7.827 -7.880
-17.495 -9.794 -7.704
-17.556 -9.805 -7.754
-10.492 -9.077 -1.463
-17.496 -9.794 -7.704
-15.632 -7.849 -7.807
-14.823 -8.017 -6.945
-15.632 -7.849 -7.807
-17.496 -9.794 -7.704
-17.556 -9.805 -7.754
-15.632 -7.849 -7.807
-15.416 -10.500 -4.925
-15.623 -7.851 -7.795
-16.771 -9.865 -6.909
-16.602 -8.210 -8.829
-16.805 -8.226 -9.021
-16.763 -9.867 -6.899
-16.763 -9.867 -6.899
-18.720 -10.761 -8.635
-16.958 -9.862 -7.097
-14.553 -7.693 -6.871
-15.549 -9.762 -5.846
-17.493 -9.794 -7.702
-14.452 -7.691 -6.771
-16.774 -9.865 -6.912
-14.732 -9.346 -5.432
-12.049 -8.069 -4.236
-18.522 -10.754 -8.439
-16.774 -9.865 -6.912
-14.717 -8.508 -6.265
-7.208 -8.405 1.220
-15.623 -7.851 -7.795
-17.856 -10.607 -7.252
-20.361 -10.664 -10.319
-20.349 -10.641 -10.333
-30.104 -6.652 -23.755
-16.474 -9.049 -8.777
-17.342 -9.628 -7.745
-29.317 -6.573 -22.947
-21.859 -10.686 -11.620
-21.521 -6.645 -15.666
-21.431 -6.629 -15.595