-7.284 -5.985 -1.289
-6.463 -6.393 -0.056
-7.284 -5.985 -1.289
-11.364 -4.353 -7.132
-7.411 -5.976 -1.425
-7.467 -6.117 -1.328
-9.089 -5.899 -3.279
-7.391 -6.207 -1.160
-10.148 -4.546 -5.806
-7.297 -5.978 -1.310
-10.074 -4.489 -5.768
-7.419 -5.969 -1.441
-9.277 -5.935 -3.391
-12.948 -2.761 -10.205
-6.254 -5.561 -0.673
-11.646 -4.780 -7.072
-7.328 -5.977 -1.341
-9.098 -5.883 -3.306
-9.530 -2.852 -6.908
-11.152 -5.394 -5.756
-11.152 -5.394 -5.756
-12.825 -2.765 -10.091
-10.190 -4.523 -5.875
-10.190 -4.523 -5.875
-11.287 -2.642 -8.983
-10.262 -4.532 -5.944
-9.355 -5.744 -3.668
-9.283 -5.907 -3.427
-10.190 -4.523 -5.875
-11.646 -4.780 -7.072
-11.646 -4.780 -7.072
-9.099 -5.882 -3.307
-12.990 -2.761 -10.259
-13.724 -1.131 -12.635
-10.190 -4.523 -5.874
-9.847 -4.761 -5.216
-10.178 -4.504 -5.875
-9.281 -5.909 -3.424
-9.097 -5.883 -3.304
-10.668 -4.597 -6.197
-10.178 -4.504 -5.875
-10.188 -4.523 -5.872
-10.188 -4.523 -5.872
-9.097 -5.883 -3.304
-10.188 -4.523 -5.872
-11.388 -2.638 -9.087
-11.002 -5.862 -5.136
-9.355 -5.744 -3.669
-9.281 -5.907 -3.426
-7.593 -6.144 -1.428
-7.593 -6.144 -1.428
-10.179 -4.503 -5.876
-7.474 -6.118 -1.335
-10.189 -4.523 -5.874
-10.264 -4.531 -5.946
-11.725 -4.217 -7.646
-8.950 -5.974 -3.055
-9.097 -5.884 -3.304
-8.950 -5.974 -3.055
-9.097 -5.884 -3.304
-9.097 -5.884 -3.304
-9.097 -5.884 -3.304
-10.390 -3.093 -7.421
-9.097 -5.884 -3.304
-9.097 -5.884 -3.304
-9.858 -4.757 -5.231
-7.475 -6.118 -1.335
-8.950 -5.974 -3.055
-9.353 -5.746 -3.664
-9.097 -5.884 -3.304
-8.950 -5.974 -3.055
-9.097 -5.884 -3.304
-7.524 -5.942 -1.604
-12.994 -2.761 -10.263
-14.394 -5.055 -9.316
-7.524 -5.942 -1.604
-13.727 -1.132 -12.638
-10.746 -6.226 -4.532
-14.395 -5.055 -9.317
-8.950 -5.974 -3.055
-8.843 -6.065 -2.850
-10.179 -4.503 -5.877
-9.098 -5.883 -3.306
-9.524 -2.851 -6.902
-11.185 -5.450 -5.716
-9.098 -5.883 -3.306
-10.189 -4.523 -5.874
-12.992 -2.761 -10.261
-9.098 -5.883 -3.305
-14.389 -5.055 -9.311
-7.474 -6.118 -1.335
-9.455 -3.344 -6.387
-9.523 -2.851 -6.901
-7.437 -5.845 -1.626
-9.099 -5.882 -3.308
-7.401 -6.187 -1.191
-9.099 -5.882 -3.308
-10.388 -3.093 -7.419
-12.467 -3.488 -9.089
-6.609 -5.189 -1.393
-15.048 -5.046 -9.985
-9.099 -5.882 -3.308
-6.661 -6.030 -0.623
-10.743 -6.226 -4.530
-13.272 -3.283 -10.100
-10.179 -4.503 -5.877
-10.189 -4.523 -5.874
-10.189 -4.523 -5.874
-7.440 -5.975 -1.455
-9.910 -4.220 -5.866
-9.354 -5.744 -3.668
-7.326 -5.978 -1.339
-9.099 -5.882 -3.308
-10.190 -4.523 -5.875
-10.190 -4.523 -5.875
-12.484 -3.483 -9.112
-10.190 -4.523 -5.875
-9.489 -2.962 -6.790
-14.321 -5.084 -9.254
-14.321 -5.084 -9.254
-10.664 -6.221 -4.462
-10.192 -4.521 -5.879
-14.160 -5.046 -9.092
-14.341 -5.080 -9.278
-7.501 -5.894 -1.635
-10.812 -6.234 -4.595
-5.095 -6.026 0.962
-10.406 -3.088 -7.443
-10.263 -4.530 -5.947
-9.260 -5.808 -3.551
-9.844 -4.760 -5.214
-10.406 -3.088 -7.443
-10.191 -4.521 -5.878
-9.844 -4.760 -5.214
-9.844 -4.760 -5.214
-10.182 -4.502 -5.881
-10.191 -4.521 -5.878
-9.668 -5.489 -4.208
-8.751 -4.431 -4.297
-14.333 -5.080 -9.270
-14.333 -5.080 -9.270
-14.860 -5.042 -9.801
-9.354 -5.742 -3.670
-5.127 -6.126 1.006
-9.578 -5.483 -4.125
-10.267 -4.529 -5.952
-10.525 -1.725 -8.873
-14.160 -5.045 -9.092
-9.354 -5.742 -3.670
-5.030 -5.630 0.570
-10.267 -4.529 -5.952
-10.811 -6.234 -4.593
-10.811 -6.234 -4.593
-10.192 -4.521 -5.880
-5.845 -6.784 0.968
-5.277 -6.367 1.109
-10.266 -4.529 -5.951
-10.810 -1.716 -9.167
-9.354 -5.742 -3.670
-9.354 -5.742 -3.670
-12.503 -3.478 -9.136
-10.734 -6.227 -4.522
-10.267 -4.529 -5.952
-13.536 -1.153 -12.424
-12.527 -4.713 -7.828
-10.233 -4.538 -5.907
-13.368 -4.087 -9.643
-10.669 -6.221 -4.467
-8.951 -5.974 -3.057
-10.666 -6.221 -4.464
-9.100 -5.881 -3.310
-13.535 -1.153 -12.423
-13.854 -5.375 -8.648
-10.265 -4.530 -5.949
-12.497 -3.479 -9.130
-14.331 -5.080 -9.268
-12.531 -4.711 -7.833
-13.370 -4.086 -9.646
-12.395 -4.759 -7.647
-10.732 -1.738 -9.068
-10.235 -4.554 -5.890
-12.395 -4.759 -7.647
-12.395 -4.759 -7.647
-10.154 -4.545 -5.812
-10.154 -4.545 -5.812
-9.103 -5.901 -3.290
-13.243 -4.124 -9.481
-16.072 -5.030 -11.021
-10.476 -6.212 -4.288
-5.172 -6.365 1.224
-5.172 -6.365 1.224
-10.798 -4.808 -6.425
-9.106 -5.901 -3.294
-5.681 -6.576 0.911
-9.255 -5.932 -3.381
-9.271 -5.823 -3.545
-9.271 -5.823 -3.545
-4.966 -5.963 1.028
-5.853 -6.783 0.960
-9.271 -5.823 -3.545
-10.619 -6.228 -4.412
-9.271 -5.823 -3.545
-7.493 -6.116 -1.356
-10.734 -1.739 -9.069
-9.275 -5.820 -3.552
-9.275 -5.820 -3.552
-12.398 -4.757 -7.653
-7.504 -5.876 -1.652
-9.376 -5.727 -3.708
-5.856 -6.784 0.958
-10.823 -6.234 -4.606
-14.328 -5.085 -9.260
-9.274 -5.808 -3.565
-10.859 -4.796 -6.488
-10.809 -1.715 -9.167
-5.856 -6.784 0.958
-9.591 -5.481 -4.140
-5.683 -6.577 0.910
-12.535 -4.712 -7.836
-12.535 -4.712 -7.836
-12.535 -4.712 -7.836
-10.823 -6.234 -4.606
-10.568 -5.898 -4.718
-10.809 -1.715 -9.167
-10.823 -6.234 -4.606
-10.823 -6.234 -4.606
-10.797 -4.500 -6.431
-10.282 -4.529 -5.967
-10.282 -4.529 -5.967
-10.804 -6.161 -4.872
-10.668 -6.222 -4.465
-10.668 -6.222 -4.465
-5.008 -6.314 1.337
-10.737 -6.228 -4.524
-5.684 -6.577 0.908
-9.282 -5.801 -3.581
-9.282 -5.801 -3.581
-9.115 -5.881 -3.326
-10.767 -6.230 -4.549
-5.857 -6.784 0.958
-10.286 -4.528 -5.972
-15.049 -4.901 -10.151
-9.570 -5.483 -4.116
-12.541 -4.711 -7.843
-13.379 -4.086 -9.656
-12.541 -4.711 -7.843
-9.282 -5.800 -3.581
-10.873 -4.799 -6.503
-14.342 -5.080 -9.279
-10.873 -4.799 -6.503
-4.356 -5.899 1.573
-9.282 -5.800 -3.581
-5.184 -6.358 1.205
-11.509 -4.915 -6.782
-8.962 -4.355 -4.760
-10.286 -4.528 -5.972
-11.509 -4.915 -6.782
-9.115 -5.880 -3.326
-10.813 -6.235 -4.594
-10.373 -6.727 -3.618
-10.805 -6.161 -4.873
-10.872 -4.799 -6.503
-5.184 -6.358 1.205
-10.872 -4.799 -6.502
-5.857 -6.784 0.957
-9.579 -5.482 -4.126
-11.510 -4.915 -6.783
-5.857 -6.784 0.957
-11.510 -4.915 -6.783
-9.115 -5.880 -3.326
-13.379 -4.086 -9.656
-13.379 -4.086 -9.656
-10.873 -4.799 -6.503
-10.815 -6.235 -4.597
-10.286 -4.528 -5.972
-10.816 -6.235 -4.597
-5.184 -6.358 1.205
-14.342 -5.080 -9.278
-10.669 -6.222 -4.467
-12.541 -4.711 -7.844
-10.670 -6.222 -4.467
-10.670 -6.222 -4.467
-13.379 -4.086 -9.656
-9.115 -5.880 -3.327
-10.667 -6.222 -4.464
-5.096 -6.026 0.961
-10.286 -4.528 -5.972
-10.286 -4.528 -5.972
-9.579 -5.482 -4.126
-10.670 -6.222 -4.467
-10.286 -4.528 -5.972
-9.282 -5.800 -3.581
-10.667 -6.222 -4.464
-5.684 -6.576 0.908
-11.509 -4.915 -6.782
-13.499 -5.315 -8.330
-13.499 -5.315 -8.330
-9.282 -5.800 -3.581
-9.282 -5.800 -3.581
-5.857 -6.784 0.957
-6.960 -6.254 -0.682
-13.369 -4.087 -9.646
-9.262 -5.806 -3.554
-13.369 -4.087 -9.645
-4.934 -6.144 1.230
-10.814 -6.234 -4.596
-11.493 -4.916 -6.767
-12.530 -4.712 -7.832
-4.879 -6.053 1.194
-10.737 -6.227 -4.525
-4.446 -5.914 1.499
-10.813 -6.234 -4.596
-12.530 -4.712 -7.832
-12.147 -4.706 -7.449
-13.369 -4.087 -9.645
-10.937 -5.458 -5.460
-9.254 -5.914 -3.400
-13.306 -5.313 -8.136
-5.845 -6.783 0.969
-9.261 -5.807 -3.553
-13.369 -4.087 -9.645
-10.667 -6.221 -4.465
-10.809 -1.716 -9.166
-13.370 -4.087 -9.646
-5.845 -6.783 0.969
-10.265 -4.530 -5.949
-4.652 -5.618 0.996
-10.666 -6.221 -4.465
-10.666 -6.221 -4.465
-13.370 -4.087 -9.646
-8.942 -4.357 -4.739
-4.437 -5.952 1.547
-13.370 -4.087 -9.646
-10.397 -6.731 -3.638
-5.007 -6.314 1.338
-10.667 -6.221 -4.465
-5.845 -6.783 0.969
-10.667 -6.221 -4.465
-11.493 -4.916 -6.768
-5.845 -6.783 0.969
-4.973 -5.843 0.898
-13.065 -4.097 -9.333
-11.493 -4.916 -6.767
-9.657 -2.950 -6.972
-10.813 -6.234 -4.595
-10.652 -6.223 -4.440
-9.755 -6.882 -2.902
-9.795 -5.507 -4.262
-5.095 -6.026 0.962
-10.737 -6.227 -4.526
-10.388 -3.090 -7.423
-10.388 -3.090 -7.423
-10.643 -6.065 -4.560
-12.030 -4.704 -7.335
-5.180 -6.357 1.208
-5.845 -6.783 0.969
-14.840 -4.913 -9.929
-10.843 -4.798 -6.471
-4.454 -5.915 1.492
-9.102 -5.893 -3.300
-9.553 -4.779 -4.897
-9.660 -2.951 -6.972
-4.857 -5.862 1.037
-5.853 -6.784 0.961
-10.265 -4.535 -5.943
-7.654 -7.043 -0.636
-7.654 -7.043 -0.636
-12.831 -6.477 -6.327
-8.855 -6.538 -2.420
-8.596 -6.680 -2.035
-6.481 -6.651 0.153
-4.939 -5.279 0.333
-6.481 -6.651 0.153
-6.092 -6.756 0.580
-8.596 -6.680 -2.035
-8.596 -6.680 -2.035
-6.284 -6.616 0.339
-12.831 -6.477 -6.327
-12.565 -6.776 -5.768
-7.654 -7.043 -0.636
-7.654 -7.043 -0.636
-5.844 -7.378 1.554
-4.911 -5.286 0.367
-6.662 -6.830 0.154
-8.851 -6.539 -2.415
-6.284 -6.616 0.339
-6.078 -6.758 0.596
-13.488 -6.434 -7.029
-4.995 -6.385 1.420
-5.916 -6.820 0.825
-7.653 -7.043 -0.635
-4.689 -5.239 0.562
-4.712 -5.313 0.592
-6.886 -5.133 -1.725
-8.717 -6.627 -2.167
-6.481 -6.652 0.154
-4.933 -5.220 0.299
-6.481 -6.652 0.154
-6.437 -6.866 0.423
-5.481 -6.024 0.572
-10.938 -6.183 -4.779
-12.825 -6.478 -6.320
-7.652 -7.043 -0.635
-7.680 -7.050 -0.653
-13.223 -6.457 -6.741
-13.223 -6.457 -6.741
-6.206 -6.655 0.360
-13.708 -6.698 -6.996
-13.365 -6.752 -6.598
-13.365 -6.752 -6.598
-13.890 -6.418 -7.457
-7.753 -7.037 -0.740
-13.709 -6.698 -6.997
-13.717 -6.432 -7.269
-4.282 -5.369 1.117
-6.343 -5.181 -1.159
-3.770 -5.948 2.208
-7.851 -7.042 -0.838
-9.270 -4.383 -4.864
-7.271 -2.702 -4.573
-5.921 -6.469 0.559
-13.364 -6.752 -6.597
-6.320 -5.232 -1.085
-3.770 -5.948 2.209
-7.727 -7.029 -0.724
-4.702 -5.320 0.610
-3.774 -5.949 2.205
-4.603 -5.059 0.468
-10.822 -7.286 -3.507
-4.939 -5.279 0.330
-5.044 -6.293 1.277
-10.982 -6.179 -4.827
-3.751 -5.280 1.535
-4.940 -5.279 0.330
-6.730 -6.535 -0.197
-6.104 -6.690 0.496
-3.753 -5.280 1.534
-14.562 -3.143 -11.568
-13.712 -6.432 -7.262
-9.103 -6.528 -2.680
-13.366 -6.752 -6.599
-6.388 -6.802 0.401
-13.886 -6.419 -7.452
-13.886 -6.419 -7.452
-4.613 -5.053 0.452
-6.387 -6.806 0.406
-4.961 -5.277 0.309
-7.842 -7.036 -0.836
-7.842 -7.036 -0.836
-4.705 -5.319 0.605
-13.456 -6.454 -6.984
-7.515 -6.861 -0.656
-6.104 -6.690 0.496
-13.717 -6.432 -7.268
-13.717 -6.432 -7.268
-7.851 -7.042 -0.838
-7.753 -7.037 -0.740
-7.727 -7.029 -0.724
-7.515 -6.861 -0.656
-13.367 -6.752 -6.601
-7.727 -7.029 -0.724
-4.839 -5.527 0.651
-5.925 -6.467 0.553
-4.961 -5.213 0.265
-5.923 -6.468 0.556
-13.368 -6.752 -6.602
-5.847 -6.453 0.618
-6.104 -6.690 0.496
-7.754 -7.070 -0.719
-4.983 -5.653 0.695
-5.046 -6.347 1.331
-4.916 -5.502 0.552
-13.712 -6.432 -7.262
-13.712 -6.432 -7.262
-13.486 -5.977 -7.573
-3.785 -5.276 1.498
-4.932 -5.284 0.344
-13.054 -6.475 -6.559
-5.853 -6.428 0.588
-7.242 -2.716 -4.530
-7.846 -7.037 -0.838
-7.846 -7.037 -0.838
-7.515 -6.861 -0.656
-13.366 -6.752 -6.600
-7.496 -6.864 -0.630
-13.709 -6.698 -6.996
-5.138 -5.446 0.280
-4.969 -5.214 0.257
-4.969 -5.214 0.257
-3.868 -5.934 2.096
-14.111 -5.849 -8.274
-5.400 -6.336 0.933
-11.124 -6.698 -4.409
-7.740 -7.065 -0.710
-13.703 -6.699 -6.989
-13.703 -6.699 -6.989
-4.924 -5.284 0.351
-7.255 -2.711 -4.548
-4.101 -5.906 1.834
-14.440 -5.914 -8.535
-5.865 -6.583 0.719
-10.003 -5.485 -4.492
-7.734 -7.064 -0.705
-9.102 -6.528 -2.680
-7.243 -2.716 -4.532
-7.851 -7.041 -0.838
-5.872 -6.583 0.713
-6.519 -6.653 0.117
-6.165 -6.736 0.492
-6.887 -5.133 -1.726
-4.950 -5.219 0.280
-13.711 -6.433 -7.262
-5.868 -6.583 0.716
-14.449 -5.914 -8.544
-5.923 -6.468 0.556
-10.917 -6.188 -4.753
-10.695 -7.261 -3.404
-5.923 -6.468 0.556
-9.943 -5.412 -4.505
-5.923 -6.468 0.556
-10.917 -6.188 -4.753
-5.923 -6.468 0.556
-6.513 -6.657 0.128
-13.453 -6.454 -6.981
-13.365 -6.752 -6.598
-13.365 -6.752 -6.598
-13.715 -6.432 -7.266
-6.196 -6.369 0.199
-8.741 -6.683 -2.175
-13.885 -6.419 -7.451
-12.899 -6.787 -6.096
-6.196 -6.369 0.199
-6.492 -6.850 0.352
-12.899 -6.787 -6.096
-13.596 -6.433 -7.142
-4.068 -6.005 1.967
-12.666 -6.833 -5.818
-5.863 -6.584 0.723
-7.240 -2.717 -4.528
-7.852 -7.037 -0.844
-5.049 -6.347 1.328
-13.904 -6.418 -7.472
-13.904 -6.418 -7.472
-11.355 -7.097 -4.247
-10.998 -6.177 -4.845
-13.069 -6.475 -6.575
-13.903 -6.418 -7.470
-13.390 -6.752 -6.624
-13.731 -6.432 -7.283
-13.906 -6.418 -7.473
-9.759 -5.394 -4.393
-5.930 -6.467 0.549
-13.905 -6.418 -7.473
-13.905 -6.418 -7.473
-11.066 -6.705 -4.344
-10.735 -6.227 -4.525
-13.731 -6.698 -7.019
-5.875 -6.582 0.709
-4.481 -5.235 0.751
-7.852 -7.040 -0.841
-13.903 -6.418 -7.470
-13.727 -6.432 -7.279
-13.763 -6.051 -7.775
-7.852 -7.040 -0.841
-4.980 -5.659 0.703
-5.100 -6.004 0.934
-7.752 -7.067 -0.720
-13.903 -6.418 -7.470
-13.903 -6.418 -7.470
-13.903 -6.419 -7.470
-4.925 -5.285 0.351
-5.555 -6.853 1.240
-4.962 -5.220 0.269
-13.899 -6.419 -7.465
-13.757 -6.054 -7.765
-14.470 -5.915 -8.564
-13.899 -6.419 -7.465
-4.965 -5.853 0.916
-13.899 -6.419 -7.465
-14.134 -5.849 -8.296
-5.138 -5.446 0.280
-5.871 -6.582 0.713
-6.316 -5.235 -1.078
-10.738 -7.259 -3.450
-13.898 -6.419 -7.464
-5.930 -6.467 0.548
-7.738 -7.062 -0.710
-7.847 -7.035 -0.841
-13.899 -6.419 -7.466
-13.899 -6.419 -7.466
-13.899 -6.419 -7.466
-13.899 -6.419 -7.466
-13.899 -6.419 -7.466
-4.961 -5.277 0.308
-14.132 -5.848 -8.295
-5.871 -6.582 0.712
-4.908 -6.013 1.134
-7.846 -7.035 -0.840
-13.898 -6.419 -7.465
-13.898 -6.419 -7.465
-13.898 -6.419 -7.465
-5.871 -6.582 0.713
-10.737 -7.259 -3.449
-13.723 -6.433 -7.275
-13.898 -6.419 -7.465
-13.898 -6.419 -7.465
-13.898 -6.419 -7.465
-5.871 -6.582 0.712
-10.738 -7.259 -3.449
-10.738 -7.259 -3.449
-10.724 -6.980 -3.719
-11.429 -7.087 -4.327
-13.898 -6.419 -7.465
-5.854 -6.452 0.611
-10.680 -6.980 -3.675
-13.068 -6.475 -6.574
-9.760 -5.394 -4.394
-13.901 -6.419 -7.468
-13.901 -6.419 -7.468
-13.728 -6.432 -7.280
-6.138 -6.367 0.255
-10.710 -7.262 -3.419
-10.710 -7.262 -3.419
-14.474 -5.914 -8.568
-13.727 -6.432 -7.279
-11.096 -6.151 -4.967
-13.902 -6.419 -7.470
-11.096 -6.151 -4.967
-13.902 -6.419 -7.470
-9.650 -5.507 -4.115
-5.037 -5.478 0.408
-13.896 -6.420 -7.462
-13.896 -6.420 -7.462
-13.896 -6.420 -7.462
-13.896 -6.420 -7.462
-4.761 -5.474 0.583
-14.462 -5.914 -8.556
-13.894 -6.420 -7.460
-5.009 -6.323 1.346
-5.855 -6.452 0.609
-5.132 -6.014 0.912
-10.679 -6.980 -3.674
-7.851 -7.035 -0.845
-7.742 -7.063 -0.714
-7.742 -7.063 -0.714
-14.478 -5.914 -8.572
-5.932 -6.467 0.546
-5.873 -6.582 0.710
-5.873 -6.582 0.710
-6.453 -6.849 0.391
-4.467 -5.445 0.984
-10.786 -7.255 -3.503
-9.992 -6.060 -3.987
-10.803 -6.980 -3.798
-13.897 -6.419 -7.464
-4.176 -5.418 1.273
-4.417 -5.768 1.382
-12.687 -7.579 -5.294
-4.176 -5.418 1.273
-7.520 -6.859 -0.663
-3.736 -5.279 1.550
-12.920 -6.788 -6.116
-13.728 -6.432 -7.280
-7.730 -7.028 -0.728
-7.730 -7.028 -0.728
-13.903 -6.418 -7.471
-14.479 -5.915 -8.573
-5.875 -6.582 0.709
-13.764 -6.049 -7.777
-7.757 -7.035 -0.747
-3.740 -5.288 1.556
-13.730 -6.698 -7.018
-14.484 -5.914 -8.578
-14.484 -5.914 -8.578
-11.853 -6.529 -5.346
-3.779 -5.266 1.493
-4.968 -5.215 0.259
-13.726 -6.432 -7.277
-7.745 -7.065 -0.715
-7.745 -7.065 -0.715
-11.289 -6.173 -5.134
-7.745 -7.065 -0.715
-7.745 -7.065 -0.715
-18.489 -4.728 -13.861
-18.769 -4.752 -14.112
-18.482 -4.729 -13.853
-18.769 -4.752 -14.112
-19.708 -4.571 -15.126
-18.482 -4.729 -13.853
-18.482 -4.729 -13.853
-19.708 -4.571 -15.126
-18.838 -4.745 -14.188
-18.482 -4.729 -13.853
-19.641 -4.580 -15.050
-19.708 -4.571 -15.126
-18.838 -4.745 -14.188
-18.769 -4.752 -14.112
-18.769 -4.752 -14.112
-19.708 -4.571 -15.126
-18.769 -4.752 -14.112
-18.769 -4.752 -14.112
-19.641 -4.580 -15.050
-18.751 -6.172 -12.567
-18.751 -6.172 -12.567
-18.837 -4.745 -14.187
-18.751 -6.172 -12.567
-18.751 -6.172 -12.567
-14.361 -4.767 -9.665
-18.840 -4.745 -14.190
-18.879 -6.555 -12.330
-17.201 -5.893 -11.294
-12.546 -3.782 -8.919
-17.271 -5.884 -11.373
-19.058 -6.035 -13.011
-19.058 -6.035 -13.011
-17.264 -5.885 -11.366
-19.058 -6.035 -13.011
-16.267 -4.345 -11.998
-17.352 -4.758 -12.597
-18.845 -4.745 -14.195
-19.705 -4.565 -15.130
-18.558 -4.722 -13.936
-18.790 -6.160 -12.618
-18.557 -4.722 -13.935
-19.566 -4.535 -15.020
-15.505 -5.090 -10.510
-18.845 -4.745 -14.195
-18.845 -4.745 -14.195
-19.706 -4.565 -15.130
-19.706 -4.565 -15.130
-18.790 -6.160 -12.618
-19.706 -4.565 -15.130
-8.612 -5.999 -2.608
-19.705 -4.565 -15.130
-19.705 -4.565 -15.130
-15.799 -4.354 -11.519
-18.800 -6.158 -12.630
-18.926 -6.545 -12.388
-19.720 -4.563 -15.147
-19.581 -4.533 -15.038
-18.572 -4.722 -13.951
-19.720 -4.563 -15.147
-19.720 -4.563 -15.147
-18.926 -6.545 -12.388
-16.126 -4.333 -11.868
-19.786 -4.554 -15.222
-18.571 -4.722 -13.949
-18.800 -6.158 -12.630
-18.800 -6.158 -12.630
-19.786 -4.554 -15.222
-19.720 -4.563 -15.147
-18.572 -4.722 -13.951
-7.085 -6.761 -0.303
-19.787 -4.554 -15.223
-18.800 -6.158 -12.630
-9.565 -4.153 -5.418
-6.955 -6.827 -0.098
-16.315 -4.331 -12.056
-18.926 -6.545 -12.388
-18.926 -6.545 -12.388
-18.926 -6.545 -12.388
-19.580 -4.533 -15.036
-18.926 -6.545 -12.388
-18.926 -6.545 -12.388
-18.926 -6.545 -12.388
-15.518 -5.088 -10.525
-17.651 -5.721 -12.127
-18.926 -6.545 -12.388
-18.800 -6.158 -12.630
-19.515 -4.541 -14.963
-18.926 -6.545 -12.389
-19.581 -4.533 -15.038
-18.800 -6.158 -12.630
-18.926 -6.545 -12.389
-11.085 -7.381 -3.746
-18.926 -6.545 -12.388
-18.926 -6.545 -12.388
-16.066 -4.953 -11.245
-18.926 -6.545 -12.388
-18.800 -6.158 -12.630
-18.926 -6.545 -12.388
-18.926 -6.545 -12.388
-11.085 -7.381 -3.746
-18.571 -4.722 -13.949
-11.029 -7.388 -3.683
-11.029 -7.388 -3.683
-19.580 -4.533 -15.037
-19.580 -4.533 -15.037
-19.580 -4.533 -15.037
-19.580 -4.533 -15.037
-18.800 -6.158 -12.630
-4.838 -5.921 0.920
-18.926 -6.545 -12.388
-18.800 -6.158 -12.629
-18.926 -6.545 -12.388
-18.570 -4.722 -13.948
-18.926 -6.545 -12.388
-11.085 -7.381 -3.746
-11.085 -7.381 -3.746
-19.453 -4.537 -14.904
-12.205 -5.533 -6.679
-18.572 -4.722 -13.950
-12.688 -3.831 -9.014
-11.112 -7.378 -3.776
-11.112 -7.378 -3.776
-18.926 -6.545 -12.388
-11.085 -7.381 -3.746
-12.482 -3.823 -8.819
-19.386 -4.546 -14.829
-19.454 -4.537 -14.905
-10.998 -7.392 -3.648
-7.511 -6.928 -0.569
-16.066 -4.953 -11.245
-19.582 -4.533 -15.038
-18.573 -4.722 -13.951
-11.029 -7.388 -3.683
-18.926 -6.545 -12.388
-11.324 -7.572 -3.801
-18.926 -6.545 -12.388
-18.800 -6.158 -12.629
-18.926 -6.545 -12.388
-18.926 -6.545 -12.388
-18.926 -6.545 -12.388
-18.800 -6.158 -12.629
-16.066 -4.953 -11.245
-18.928 -4.738 -14.285
-11.023 -7.388 -3.677
-19.582 -4.533 -15.039
-19.582 -4.533 -15.039
-19.203 -4.553 -14.640
-18.800 -6.158 -12.630
-7.511 -6.928 -0.569
-8.916 -5.122 -3.776
-7.511 -6.928 -0.569
-8.916 -5.122 -3.776
-11.045 -7.386 -3.700
-18.573 -4.722 -13.951
-19.720 -4.563 -15.147
-19.387 -4.546 -14.830
-19.387 -4.546 -14.830
-8.905 -5.194 -3.693
-18.926 -6.545 -12.388
-18.800 -6.158 -12.630
-18.800 -6.158 -12.630
-18.927 -4.738 -14.284
-11.023 -7.388 -3.677
-18.800 -6.158 -12.630
-19.387 -4.546 -14.830
-18.800 -6.158 -12.630
-19.453 -4.537 -14.905
-6.400 -6.559 0.135
-7.663 -6.674 -0.986
-11.061 -7.384 -3.719
-19.582 -4.533 -15.038
-18.928 -4.738 -14.285
-19.514 -4.542 -14.962
-10.997 -7.392 -3.646
-18.926 -6.545 -12.388
-19.785 -4.554 -15.221
-19.453 -4.537 -14.904
-18.404 -6.190 -12.199
-17.650 -5.721 -12.125
-18.926 -6.545 -12.388
-7.511 -6.928 -0.569
-15.518 -5.088 -10.526
-17.652 -5.721 -12.128
-17.652 -5.721 -12.128
-8.807 -5.287 -3.500
-19.515 -4.541 -14.963
-7.511 -6.928 -0.570
-12.242 -3.848 -8.552
-18.926 -6.545 -12.388
-18.800 -6.158 -12.630
-12.214 -5.531 -6.690
-18.926 -6.545 -12.388
-18.926 -6.545 -12.388
-18.800 -6.158 -12.630
-18.800 -6.158 -12.630
-15.518 -5.088 -10.526
-16.326 -4.855 -11.603
-19.454 -4.537 -14.906
-12.242 -3.847 -8.552
-16.066 -4.953 -11.245
-11.089 -7.381 -3.750
-17.651 -5.721 -12.127
-7.669 -6.512 -1.170
-6.515 -6.571 0.035
-19.721 -4.563 -15.148
-19.788 -4.554 -15.224
-8.806 -5.287 -3.500
-7.226 -6.273 -0.979
-7.668 -6.596 -1.076
-18.763 -6.552 -12.217
-15.384 -5.072 -10.408
-19.568 -4.535 -15.022
-8.905 -5.196 -3.690
-12.242 -3.848 -8.552
-6.404 -6.556 0.129
-8.916 -5.122 -3.775
-12.242 -3.847 -8.552
-12.242 -3.848 -8.552
-17.650 -5.721 -12.126
-18.800 -6.158 -12.630
-12.482 -3.823 -8.819
-12.214 -5.531 -6.689
-7.511 -6.928 -0.569
-18.926 -6.545 -12.388
-4.837 -5.922 0.921
-18.648 -6.166 -12.470
-15.560 -5.032 -10.624
-19.166 -6.433 -12.742
-17.649 -5.721 -12.125
-18.926 -4.738 -14.283
-7.477 -6.911 -0.556
-7.666 -6.610 -1.058
-7.465 -5.967 -1.478
-18.800 -6.158 -12.630
-8.806 -5.287 -3.499
-18.928 -4.738 -14.285
-15.106 -5.106 -10.097
-18.926 -6.545 -12.388
-15.798 -4.354 -11.519
-17.811 -5.708 -12.295
-18.800 -6.158 -12.629
-19.580 -4.533 -15.037
-12.242 -3.848 -8.552
-19.580 -4.533 -15.037
-17.650 -5.721 -12.126
-19.582 -4.532 -15.039
-7.667 -6.578 -1.095
-18.927 -6.545 -12.389
-17.650 -5.721 -12.125
-7.511 -6.928 -0.569
-19.386 -4.546 -14.829
-7.668 -6.819 -0.832
-9.735 -3.283 -6.748
-19.453 -4.537 -14.905
-19.453 -4.537 -14.905
-18.926 -6.545 -12.388
-18.800 -6.158 -12.630
-19.580 -4.533 -15.037
-18.800 -6.158 -12.630
-19.514 -4.542 -14.962
-8.916 -5.122 -3.776
-18.773 -6.551 -12.229
-18.800 -6.158 -12.630
-18.405 -6.190 -12.200
-16.153 -4.955 -11.328
-16.153 -4.955 -11.328
-17.433 -4.756 -12.679
-16.544 -3.917 -12.663
-12.510 -2.693 -10.375
-16.170 -4.937 -11.363
-16.158 -4.955 -11.334
-12.521 -2.671 -10.407
-16.170 -4.937 -11.363
-17.374 -4.747 -12.627
-14.556 -3.163 -11.541
-16.558 -3.921 -12.674
-12.855 -3.144 -9.783
-17.438 -4.755 -12.685
-5.332 -6.371 1.062
-12.857 -3.143 -9.786
-17.441 -4.755 -12.689
-17.369 -4.748 -12.621
-14.557 -3.163 -11.541
-12.521 -2.671 -10.408
-18.921 -4.739 -14.277
-4.971 -6.050 1.110
-5.113 -6.033 0.951
-7.086 -6.760 -0.303
-13.726 -6.701 -7.010
-17.419 -4.761 -12.660
-17.419 -4.761 -12.660
-17.419 -4.761 -12.660
-12.503 -2.679 -10.382
-16.134 -4.962 -11.302
-13.726 -6.701 -7.010
-16.146 -4.944 -11.331
-13.234 -3.011 -10.353
-16.134 -4.962 -11.302
-12.503 -2.679 -10.382
-13.726 -6.701 -7.009
-16.101 -3.576 -12.531
-13.231 -3.011 -10.349
-13.231 -3.011 -10.349
-16.101 -3.576 -12.531
-16.146 -4.944 -11.331
-16.134 -4.962 -11.302
-16.134 -4.962 -11.302
-16.533 -3.921 -12.648
-17.432 -4.759 -12.672
-7.083 -6.766 -0.295
-13.671 -6.440 -7.225
-10.243 -7.031 -3.204
-16.135 -4.962 -11.303
-13.671 -6.441 -7.225
-13.727 -6.701 -7.010
-13.671 -6.441 -7.225
-16.097 -3.577 -12.526
-6.997 -7.235 0.267
-14.369 -5.941 -8.436
-16.478 -3.526 -12.955
-6.997 -7.235 0.267
-6.599 -7.448 0.881
-6.995 -7.232 0.266
-11.097 -7.021 -4.051
-10.787 -7.009 -3.750
-16.550 -4.815 -11.871
-16.934 -3.860 -13.114
-7.678 -6.312 -1.399
-19.001 -4.726 -14.371
-16.672 -3.894 -12.815
-7.090 -6.777 -0.291
-13.298 -2.986 -10.443
-14.622 -3.146 -11.623
-16.016 -4.905 -11.242
-17.501 -4.739 -12.765
-4.512 -6.316 1.818
-8.085 -6.510 -1.603
-8.085 -6.510 -1.603
-12.973 -3.112 -9.933
-16.202 -4.939 -11.394
-16.202 -4.939 -11.394
-6.995 -7.232 0.266
-19.848 -4.537 -15.300
-7.642 -6.843 -0.783
-17.502 -4.739 -12.766
-6.340 -6.529 0.215
-19.848 -4.537 -15.301
-12.551 -3.371 -9.404
-16.202 -4.939 -11.395
-8.085 -6.510 -1.603
-13.316 -2.984 -10.463
-8.085 -6.510 -1.603
-17.501 -4.739 -12.765
-15.988 -4.910 -11.210
-4.450 -6.307 1.870
-13.726 -6.701 -7.009
-10.612 -1.771 -8.913
-16.134 -4.962 -11.302
-16.534 -3.921 -12.648
-15.935 -4.930 -11.134
-15.935 -4.930 -11.134
-13.671 -6.441 -7.225
-13.227 -3.012 -10.345
-15.921 -4.932 -11.119
-13.727 -6.701 -7.010
-14.527 -5.965 -8.564
-13.521 -6.765 -6.744
-6.320 -6.535 0.240
-6.320 -6.535 0.240
-14.497 -5.974 -8.525
-12.496 -2.682 -10.372
-13.699 -6.719 -6.965
-6.997 -7.235 0.267
-17.320 -4.774 -12.545
-9.527 -4.165 -5.367
-17.787 -4.705 -13.083
-6.997 -7.235 0.267
-7.083 -6.766 -0.295
-7.665 -6.882 -0.775
-17.358 -4.771 -12.586
-13.651 -6.442 -7.204
-6.320 -6.535 0.240
-8.057 -6.575 -1.509
-7.083 -6.766 -0.295
-17.662 -4.714 -12.948
-7.002 -7.238 0.265
-18.913 -4.739 -14.269
-7.666 -6.631 -1.036
-19.772 -4.558 -15.204
-19.772 -4.558 -15.204
-7.086 -6.761 -0.302
-13.850 -6.425 -7.423
-11.060 -7.301 -3.736
-17.431 -4.759 -12.672
-7.084 -6.766 -0.296
-7.084 -6.766 -0.296
-7.082 -6.810 -0.252
-7.088 -6.756 -0.309
-16.187 -3.548 -12.644
-7.089 -6.756 -0.310
-19.807 -4.542 -15.254
-10.722 -6.938 -3.754
-13.728 -6.701 -7.011
-6.320 -6.535 0.240
-13.728 -6.701 -7.011
-7.084 -6.770 -0.292
-17.444 -4.757 -12.686
-8.059 -6.575 -1.511
-13.728 -6.700 -7.012
-13.672 -6.441 -7.226
-8.059 -6.575 -1.512
-7.084 -6.766 -0.296
-17.443 -4.757 -12.685
-14.553 -3.166 -11.534
-16.557 -3.924 -12.671
-17.368 -4.748 -12.619
-4.739 -6.056 1.347
-13.285 -7.359 -5.895
-7.072 -6.785 -0.265
-19.685 -4.576 -15.098
-6.998 -7.238 0.270
-16.057 -4.983 -11.203
-16.057 -4.983 -11.203
-7.820 -7.064 -0.780
-15.867 -4.949 -11.046
-14.498 -5.973 -8.527
-4.809 -6.257 1.477
-6.998 -7.235 0.267
-16.135 -4.964 -11.301
-7.084 -6.767 -0.294
-7.084 -6.767 -0.294
-7.626 -6.884 -0.736
-18.835 -4.746 -14.183
-19.703 -4.573 -15.120
-7.074 -6.783 -0.269
-19.703 -4.573 -15.120
-17.368 -4.771 -12.600
-7.074 -6.783 -0.269
-18.835 -4.746 -14.183
-13.652 -6.443 -7.204
-7.085 -6.766 -0.297
-17.423 -4.761 -12.664
-15.188 -5.005 -10.181
-17.427 -4.760 -12.666
-17.427 -4.760 -12.666
-18.861 -4.746 -14.210
-7.085 -6.766 -0.297
-7.084 -6.770 -0.292
-12.499 -2.701 -10.356
-16.153 -4.944 -11.338
-7.085 -6.766 -0.297
-13.652 -6.443 -7.204
-14.497 -5.973 -8.526
-14.817 -4.873 -10.086
-7.084 -6.767 -0.294
-17.437 -4.759 -12.677
-13.243 -3.012 -10.361
-14.497 -5.973 -8.526
-7.479 -6.894 -0.580
-19.704 -4.573 -15.120
-7.526 -6.879 -0.643
-4.890 -6.341 1.481
-18.835 -4.746 -14.184
-4.875 -6.345 1.500
-7.074 -6.783 -0.269
-15.868 -4.965 -11.033
-18.835 -4.746 -14.184
-17.366 -4.751 -12.615
-4.869 -6.346 1.507
-17.445 -4.760 -12.685
-17.445 -4.760 -12.685
-14.496 -5.973 -8.525
-15.915 -4.952 -11.095
-13.232 -3.013 -10.348
-19.718 -4.570 -15.137
-16.536 -3.928 -12.646
-18.852 -4.747 -14.200
-4.867 -6.341 1.505
-17.416 -4.763 -12.656
-7.817 -7.065 -0.777
-18.665 -4.745 -14.017
-17.582 -4.728 -12.854
-14.752 -5.125 -9.745
-18.991 -4.726 -14.360
-5.975 -6.752 0.776
-6.395 -6.561 0.142
-11.217 -6.030 -5.244
-11.120 -6.029 -5.147
-12.164 -5.542 -6.629
-7.774 -6.888 -0.955
-12.163 -5.542 -6.627
-6.394 -6.561 0.143
-12.163 -5.542 -6.627
-6.646 -5.703 -0.955
-10.809 -5.282 -5.652
-5.828 -4.993 -0.875
-6.646 -5.703 -0.955
-7.724 -6.887 -0.909
-6.646 -5.703 -0.955
-7.724 -6.887 -0.909
-8.745 -2.857 -5.922
-12.165 -5.542 -6.629
-8.745 -2.857 -5.922
-8.589 -2.219 -6.442
-7.774 -6.888 -0.955
-10.719 -5.295 -5.533
-8.745 -2.857 -5.922
-6.394 -6.561 0.143
-11.586 -4.694 -6.891
-11.882 -5.658 -6.313
-11.882 -5.658 -6.313
-11.882 -5.658 -6.313
-11.054 -5.273 -5.815
-11.891 -5.656 -6.325
-11.891 -5.656 -6.325
-11.891 -5.656 -6.325
-11.054 -5.273 -5.815
-11.054 -5.273 -5.815
-12.187 -5.536 -6.658
-5.931 -6.145 0.173
-11.176 -5.308 -5.896
-11.608 -4.689 -6.918
-10.875 -5.194 -5.787
-10.875 -5.194 -5.787
-10.875 -5.194 -5.787
-5.931 -6.145 0.173
-12.706 -3.821 -9.045
-11.999 -5.912 -6.163
-11.055 -5.273 -5.815
-10.875 -5.194 -5.787
-10.840 -5.277 -5.687
-10.840 -5.277 -5.687
-10.649 -5.266 -5.359
-7.056 -6.659 -0.435
-11.062 -6.095 -5.023
-11.609 -4.688 -6.919
-11.609 -4.688 -6.919
-11.996 -5.912 -6.160
-11.146 -6.026 -5.174
-11.889 -5.656 -6.322
-12.187 -5.536 -6.657
-11.054 -5.273 -5.814
-10.746 -5.291 -5.564
-5.784 -7.068 1.312
-11.991 -5.914 -6.153
-11.139 -6.027 -5.166
-10.867 -5.196 -5.777
-10.985 -6.092 -4.948
-7.775 -6.887 -0.957
-11.213 -6.031 -5.236
-11.213 -6.031 -5.236
-11.213 -6.031 -5.236
-7.725 -6.887 -0.910
-7.725 -6.887 -0.910
-11.000 -5.277 -5.758
-10.869 -5.196 -5.779
-11.145 -6.026 -5.172
-10.747 -5.291 -5.564
-12.178 -5.537 -6.647
-6.033 -6.151 0.064
-10.869 -5.196 -5.780
-11.980 -5.635 -6.435
-7.728 -6.888 -0.912
-7.728 -6.888 -0.912
-12.929 -3.775 -9.309
-10.863 -5.263 -5.726
-5.640 -6.894 1.285
-10.907 -5.177 -5.837
-10.907 -5.177 -5.837
-7.778 -6.888 -0.959
-11.045 -6.075 -5.027
-11.065 -5.784 -5.386
-7.071 -6.659 -0.451
-7.729 -6.887 -0.913
-7.071 -6.659 -0.451
-11.956 -5.638 -6.408
-6.488 -6.550 0.040
-8.785 -2.828 -5.991
-11.205 -6.008 -5.253
-11.062 -5.785 -5.382
-6.488 -6.550 0.040
-11.205 -6.008 -5.253
-10.867 -5.263 -5.731
-7.728 -6.887 -0.913
-11.059 -6.076 -5.039
-8.794 -2.838 -5.989
-8.794 -2.838 -5.989
-6.485 -6.551 0.043
-7.847 -6.861 -1.051
-6.485 -6.551 0.043
-7.066 -6.659 -0.446
-7.066 -6.659 -0.445
-11.243 -5.289 -5.985
-5.800 -7.071 1.299
-12.294 -5.514 -6.787
-11.109 -6.075 -5.090
-7.847 -6.861 -1.052
-5.800 -7.070 1.298
-5.800 -7.070 1.298
-12.294 -5.514 -6.787
-6.616 -5.741 -0.885
-5.800 -7.070 1.298
-10.662 -5.247 -5.455
-11.013 -4.948 -6.126
-5.903 -6.147 0.203
-6.568 -5.746 -0.832
-10.883 -7.381 -3.486
-11.257 -5.286 -6.002
-12.298 -5.485 -6.820
-6.567 -5.747 -0.831
-6.486 -6.551 0.043
-10.661 -5.248 -5.454
-7.873 -6.862 -1.075
-11.253 -5.287 -5.996
-5.967 -7.084 1.145
-5.800 -7.071 1.298
-5.800 -7.071 1.298
-11.701 -4.667 -7.034
-11.924 -5.480 -6.448
-5.904 -6.147 0.202
-10.659 -5.249 -5.450
-11.272 -6.008 -5.319
-11.254 -5.287 -5.998
-11.708 -4.665 -7.042
-5.906 -6.147 0.200
-5.967 -7.084 1.145
-4.234 -5.883 1.673
-3.389 -5.489 2.128
-3.781 -5.926 2.174
-4.683 -5.642 0.984
-6.019 -4.740 -1.313
-13.464 -8.516 -4.934
-3.546 -5.216 1.700
-9.723 -4.641 -5.078
-4.684 -5.642 0.984
-5.192 -5.572 0.406
-5.097 -5.610 0.484
-9.530 -4.652 -4.875
-5.295 -5.506 0.142
-3.823 -5.047 1.251
-4.684 -5.642 0.983
-4.684 -5.642 0.983
-3.782 -5.926 2.173
-13.464 -8.516 -4.934
-13.464 -8.516 -4.934
-6.941 -5.118 -1.795
-3.818 -5.052 1.260
-12.792 -7.552 -5.431
-3.823 -5.047 1.251
-3.782 -5.926 2.173
-3.782 -5.926 2.173
-9.438 -5.233 -4.457
-5.213 -5.575 0.388
-3.782 -5.926 2.173
-3.390 -5.489 2.128
-5.122 -5.603 0.450
-4.721 -5.250 0.551
-5.122 -5.603 0.450
-12.792 -7.552 -5.431
-5.071 -5.451 0.402
-5.580 -6.194 0.642
-9.666 -4.642 -5.019
-5.122 -5.603 0.450
-5.216 -5.576 0.386
-9.722 -4.642 -5.077
-7.496 -6.017 -1.464
-3.782 -5.926 2.173
-5.016 -5.305 0.311
-4.780 -5.274 0.516
-3.823 -5.048 1.251
-3.390 -5.489 2.128
-4.780 -5.274 0.516
-3.818 -5.052 1.261
-4.900 -5.886 0.954
-7.362 -6.027 -1.320
-4.783 -5.275 0.514
-13.539 -8.516 -5.008
-3.794 -5.928 2.163
-3.794 -5.928 2.163
-4.902 -5.887 0.952
-10.644 -0.590 -10.111
-10.644 -0.590 -10.111
-4.689 -5.642 0.978
-9.551 -5.230 -4.570
-3.794 -5.928 2.163
-10.643 -0.591 -10.109
-4.499 -5.045 0.564
-5.298 -5.507 0.140
-5.298 -5.507 0.140
-5.074 -5.452 0.399
-4.912 -5.628 0.741
-10.979 -1.013 -10.059
-12.793 -7.551 -5.433
-4.912 -5.628 0.741
-3.824 -5.052 1.255
-4.912 -5.628 0.741
-5.960 -4.896 -1.058
-5.217 -5.578 0.388
-4.689 -5.644 0.980
-5.091 -5.613 0.495
-3.400 -5.490 2.119
-5.217 -5.578 0.387
-5.214 -5.577 0.389