-8.568 -9.635 1.073
-11.307 -9.342 -2.049
-8.935 -9.655 0.741
-9.218 -9.303 0.099
-8.935 -9.655 0.741
-8.935 -9.655 0.741
-10.399 -9.192 -1.193
-8.823 -9.676 0.863
-11.305 -9.338 -2.050
-11.305 -9.338 -2.050
-11.184 -9.604 -1.570
-10.856 -9.621 -1.230
-9.003 -9.656 0.675
-11.306 -9.337 -2.052
-11.423 -9.898 -1.506
-9.845 -9.268 -0.563
-10.856 -9.621 -1.230
-9.842 -9.269 -0.560
-9.003 -9.656 0.675
-11.423 -9.898 -1.506
-8.931 -9.655 0.746
-11.934 -9.144 -2.876
-8.134 -9.227 1.111
-9.823 -9.259 -0.550
-9.286 -9.025 -0.453
-9.824 -9.259 -0.551
-12.238 -9.722 -2.557
-8.133 -9.229 1.115
-8.591 -9.543 0.959
-12.112 -9.420 -2.758
-10.194 -9.296 -0.883
-8.859 -9.852 1.007
-9.823 -9.260 -0.550
-11.471 -9.348 -2.201
-9.855 -9.267 -0.574
-9.019 -9.657 0.659
-11.185 -9.605 -1.572
-11.186 -9.599 -1.578
-10.859 -9.618 -1.236
-8.134 -9.227 1.111
-11.471 -9.347 -2.202
-10.418 -9.463 -0.946
-8.632 -9.525 0.901
-11.428 -9.898 -1.511
-8.841 -10.203 1.339
-11.473 -9.348 -2.203
-8.706 -9.943 1.260
-8.138 -9.226 1.106
-9.858 -9.265 -0.579
-10.094 -9.277 -0.803
-8.722 -9.998 1.290
-9.021 -9.658 0.658
-9.826 -9.260 -0.552
-7.866 -9.414 1.544
-8.434 -9.640 1.229
-11.473 -9.347 -2.204
-11.473 -9.347 -2.204
-11.246 -9.884 -1.345
-9.848 -9.269 -0.565
-9.848 -9.269 -0.565
-8.525 -9.655 1.149
-8.137 -9.226 1.108
-11.189 -9.605 -1.575
-9.844 -9.270 -0.561
-8.679 -9.680 1.022
-11.472 -9.348 -2.202
-7.495 -9.527 2.034
-9.227 -9.323 0.109
-9.857 -9.267 -0.576
-10.401 -9.195 -1.192
-8.722 -9.997 1.289
-7.138 -9.484 2.352
-11.518 -9.902 -1.597
-11.242 -9.066 -2.266
-8.512 -9.989 1.490
-11.252 -9.889 -1.344
-9.211 -9.322 0.123
-7.920 -8.882 0.975
-10.095 -9.277 -0.803
-10.095 -9.277 -0.803
-9.858 -9.265 -0.579
-8.499 -9.749 1.270
-9.228 -9.332 0.118
-10.849 -9.384 -1.467
-10.423 -9.460 -0.954
-9.857 -9.267 -0.576
-8.306 -9.614 1.312
-11.252 -9.889 -1.345
-8.645 -10.012 1.386
-8.594 -9.582 0.994
-9.858 -9.265 -0.579
-9.825 -9.259 -0.552
-8.843 -9.916 1.085
-8.843 -9.915 1.084
-10.095 -9.278 -0.803
-9.858 -9.265 -0.579
-9.858 -9.265 -0.579
-7.663 -9.452 1.782
-7.963 -9.486 1.539
-11.252 -9.888 -1.346
-11.389 -9.212 -2.262
-10.197 -9.299 -0.882
-9.229 -9.322 0.107
-8.591 -9.621 1.034
-8.846 -9.919 1.085
-11.189 -9.602 -1.578
-8.303 -10.078 1.778
-11.154 -9.606 -1.539
-9.811 -9.264 -0.534
-11.247 -9.166 -2.174
-10.604 -9.541 -1.055
-10.197 -9.299 -0.882
-9.826 -9.259 -0.552
-7.871 -9.393 1.519
-9.825 -9.259 -0.552
-9.825 -9.259 -0.552
-11.188 -9.603 -1.577
-11.314 -9.299 -2.100
-8.679 -9.680 1.022
-8.051 -10.097 2.041
-8.051 -10.096 2.041
-9.185 -9.340 0.168
-7.740 -9.618 1.886
-8.949 -9.656 0.728
-8.569 -9.659 1.115
-9.825 -9.259 -0.553
-7.657 -9.411 1.752
-9.186 -9.313 0.140
-7.776 -10.064 2.287
-11.458 -9.898 -1.541
-10.981 -9.582 -1.389
-8.645 -10.008 1.383
-8.249 -9.958 1.728
-10.095 -9.277 -0.803
-11.253 -9.888 -1.346
-10.859 -9.619 -1.236
-9.844 -9.269 -0.561
-11.436 -10.138 -1.313
-9.826 -9.261 -0.551
-11.251 -9.890 -1.342
-10.197 -9.301 -0.881
-9.229 -9.325 0.109
-9.825 -9.259 -0.552
-7.587 -9.290 1.700
-11.249 -9.894 -1.340
-7.518 -9.473 1.967
-11.153 -9.606 -1.539
-7.441 -9.441 2.011
-8.304 -9.613 1.312
-8.462 -9.364 0.915
-11.250 -9.889 -1.342
-9.211 -9.321 0.124
-8.509 -9.627 1.136
-8.485 -9.376 0.904
-9.220 -9.320 0.113
-10.401 -9.193 -1.194
-7.523 -9.421 1.895
-11.099 -9.989 -1.140
-9.858 -9.267 -0.577
-8.644 -9.999 1.374
-8.110 -9.628 1.540
-9.826 -9.259 -0.552
-10.094 -9.277 -0.803
-8.495 -9.968 1.492
-8.142 -9.940 1.806
-7.772 -10.064 2.290
-7.871 -9.399 1.525
-10.094 -9.277 -0.803
-7.972 -9.498 1.542
-7.773 -10.064 2.289
-10.401 -9.195 -1.192
-8.495 -9.969 1.493
-11.471 -10.058 -1.438
-8.280 -9.995 1.734
-7.197 -9.524 2.324
-10.196 -9.299 -0.882
-11.472 -9.349 -2.202
-8.478 -9.979 1.521
-9.218 -9.319 0.114
-7.773 -10.064 2.289
-10.401 -9.193 -1.194
-10.401 -9.194 -1.192
-11.388 -9.213 -2.260
-8.139 -9.601 1.464
-8.247 -9.960 1.732
-7.576 -9.420 1.846
-11.389 -9.212 -2.262
-10.401 -9.194 -1.193
-9.000 -9.659 0.679
-9.825 -9.260 -0.552
-8.561 -9.525 0.969
-7.870 -9.370 1.498
-9.220 -9.319 0.112
-11.388 -9.213 -2.259
-7.876 -10.079 2.203
-8.492 -9.755 1.269
-11.458 -9.898 -1.542
-11.431 -9.897 -1.515
-9.815 -9.263 -0.538
-11.252 -9.890 -1.344
-7.426 -9.517 2.102
-7.340 -9.349 2.027
-8.112 -10.100 1.993
-10.423 -9.461 -0.954
-10.196 -9.299 -0.883
-10.094 -9.277 -0.803
-8.524 -10.064 1.548
-9.825 -9.259 -0.553
-8.493 -9.381 0.902
-8.312 -9.947 1.654
-8.280 -9.633 1.375
-8.057 -9.779 1.740
-9.858 -9.265 -0.579
-7.861 -10.063 2.201
-9.858 -9.265 -0.579
-10.401 -9.193 -1.194
-7.772 -10.064 2.290
-10.429 -9.456 -0.965
-8.645 -10.005 1.380
-11.153 -9.605 -1.539
-8.713 -9.668 0.976
-7.469 -9.423 1.951
-9.903 -9.265 -0.624
-7.779 -10.065 2.285
-9.825 -9.260 -0.551
-7.944 -9.493 1.565
-7.263 -8.745 1.483
-10.423 -9.461 -0.954
-9.219 -9.321 0.115
-8.781 -10.100 1.325
-10.424 -9.460 -0.955
-10.424 -9.460 -0.955
-7.341 -9.207 1.871
-8.999 -9.656 0.678
-7.263 -8.745 1.483
-7.471 -9.416 1.942
-11.101 -9.987 -1.143
-8.048 -9.997 1.958
-9.220 -9.321 0.114
-7.459 -9.566 2.114
-7.855 -10.076 2.221
-9.858 -9.267 -0.577
-7.624 -9.497 1.873
-8.584 -9.501 0.929
-9.219 -9.320 0.114
-11.259 -9.877 -1.365
-8.118 -10.101 1.986
-11.268 -9.248 -2.108
-8.164 -9.694 1.518
-7.651 -9.085 1.448
-7.422 -9.496 2.080
-8.171 -9.866 1.712
-10.410 -9.193 -1.203
-7.558 -10.003 2.443
-9.202 -9.319 0.129
-10.410 -9.193 -1.202
-7.262 -8.743 1.482
-9.913 -9.266 -0.633
-8.327 -9.932 1.624
-9.835 -9.259 -0.562
-9.236 -9.323 0.100
-9.236 -9.323 0.100
-7.676 -9.386 1.707
-7.366 -8.724 1.358
-9.835 -9.259 -0.561
-9.835 -9.259 -0.562
-7.676 -9.405 1.726
-9.835 -9.259 -0.562
-9.912 -9.263 -0.635
-7.858 -10.056 2.197
-9.227 -9.320 0.106
-9.913 -9.264 -0.634
-7.267 -9.387 2.132
-6.960 -9.209 2.253
-7.609 -9.593 1.996
-7.509 -10.006 2.494
-7.769 -10.057 2.287
-9.227 -9.319 0.105
-7.375 -8.749 1.384
-8.114 -9.399 1.290
-9.867 -9.265 -0.588
-9.236 -9.323 0.101
-8.334 -9.931 1.616
-9.227 -9.320 0.106
-7.133 -9.426 2.286
-7.768 -10.056 2.286
-7.857 -10.055 2.196
-8.323 -9.946 1.642
-9.227 -9.319 0.106
-9.226 -9.315 0.101
-7.365 -8.724 1.358
-10.410 -9.191 -1.204
-9.236 -9.322 0.100
-10.204 -9.494 -0.703
-9.834 -9.261 -0.559
-9.236 -9.324 0.101
-7.930 -9.738 1.819
-7.855 -10.055 2.199
-7.766 -10.056 2.288
-9.835 -9.259 -0.563
-9.203 -9.316 0.126
-9.913 -9.264 -0.635
-10.411 -9.193 -1.204
-9.835 -9.259 -0.562
-8.267 -9.941 1.693
-12.081 -9.466 -2.677
-7.449 -9.534 2.091
-8.487 -9.583 1.102
-7.851 -10.055 2.202
-7.506 -10.002 2.494
-9.228 -9.320 0.106
-8.334 -9.926 1.612
-9.227 -9.319 0.105
-7.762 -10.055 2.291
-7.262 -10.224 2.937
-7.601 -9.482 1.889
-11.316 -9.369 -2.028
-8.141 -9.591 1.452
-7.554 -9.999 2.442
-7.800 -9.522 1.710
-9.228 -9.320 0.105
-9.228 -9.318 0.103
-7.923 -9.594 1.673
-9.228 -9.320 0.105
-8.035 -10.089 2.050
-9.227 -9.320 0.107
-8.271 -9.630 1.382
-8.271 -9.936 1.684
-9.227 -9.318 0.105
-8.336 -9.925 1.608
-11.106 -10.022 -1.112
-7.629 -9.493 1.864
-9.229 -9.352 0.137
-9.228 -9.321 0.106
-6.807 -9.291 2.486
-7.449 -9.515 2.068
-8.497 -9.382 0.899
-9.228 -9.319 0.104
-9.228 -9.320 0.105
-7.640 -10.018 2.377
-9.228 -9.323 0.108
-7.085 -9.013 1.943
-7.847 -10.069 2.221
-9.228 -9.320 0.106
-8.154 -9.996 1.850
-8.293 -9.986 1.712
-7.589 -9.530 1.947
-7.271 -8.746 1.477
-10.689 -9.598 -1.086
-7.366 -9.239 1.881
-9.214 -9.322 0.121
-7.446 -9.468 2.034
-7.391 -9.478 2.099
-10.271 -9.352 -1.017
-9.208 -9.319 0.125
-9.860 -9.262 -0.584
-9.216 -9.324 0.121
-10.889 -9.903 -0.970
-10.402 -9.194 -1.194
-8.494 -9.959 1.485
-9.912 -9.265 -0.633
-8.271 -9.936 1.684
-9.227 -9.320 0.107
-7.393 -8.737 1.353
-8.336 -9.923 1.606
-9.227 -9.320 0.106
-9.227 -9.320 0.106
-8.277 -9.937 1.680
-9.223 -9.297 0.087
-7.365 -8.723 1.357
-7.968 -9.490 1.538
-8.337 -9.924 1.607
-12.086 -9.528 -2.617
-7.719 -10.043 2.326
-7.277 -8.747 1.472
-7.363 -9.205 1.850
-12.154 -9.533 -2.678
-7.974 -10.085 2.113
-9.223 -9.321 0.111
-7.527 -10.316 2.789
-7.449 -9.214 1.771
-7.363 -9.208 1.853
-8.521 -9.647 1.146
-9.190 -9.359 0.182
-7.947 -9.485 1.554
-8.288 -9.624 1.359
-8.039 -10.090 2.047
-7.559 -10.000 2.438
-9.226 -9.310 0.097
-8.129 -9.966 1.845
-10.202 -9.491 -0.704
-8.216 -10.015 1.817
-8.216 -10.015 1.817
-11.106 -10.023 -1.111
-9.227 -9.321 0.107
-9.227 -9.318 0.105
-7.634 -9.517 1.894
-9.867 -9.266 -0.587
-7.384 -8.952 1.582
-6.124 -9.669 3.539
-7.628 -9.492 1.863
-11.236 -9.251 -2.072
-7.504 -9.508 2.004
-7.660 -10.022 2.361
-8.222 -10.004 1.801
-7.660 -10.022 2.361
-9.226 -9.321 0.108
-9.193 -9.315 0.135
-8.146 -10.013 1.876
-9.879 -9.260 -0.605
-10.023 -9.288 -0.720
-7.969 -9.491 1.538
-8.389 -9.453 1.075
-7.785 -9.416 1.645
-7.372 -9.424 2.064
-8.132 -9.953 1.827
-8.524 -9.652 1.149
-6.964 -9.318 2.367
-7.263 -8.742 1.481
-7.221 -10.240 2.996
-9.228 -9.320 0.106
-10.198 -9.491 -0.700
-7.478 -8.835 1.374
-7.625 -10.028 2.403
-8.481 -9.588 1.112
-7.623 -9.700 2.089
-7.764 -10.056 2.290
-9.227 -9.320 0.106
-7.323 -9.175 1.860
-7.853 -10.055 2.201
-9.912 -9.264 -0.634
-8.499 -9.363 0.876
-7.342 -9.074 1.740
-7.959 -9.489 1.546
-8.170 -9.981 1.818
-9.232 -9.321 0.102
-7.381 -9.416 2.046
-9.232 -9.322 0.104
-8.497 -9.384 0.900
-8.211 -9.827 1.639
-7.506 -10.004 2.495
-9.232 -9.322 0.103
-9.199 -9.319 0.133
-7.958 -9.489 1.547
-7.959 -9.489 1.546
-8.336 -9.927 1.611
-7.958 -9.489 1.547
-7.508 -10.002 2.492
-7.958 -9.489 1.546
-10.410 -9.192 -1.203
-9.236 -9.323 0.100
-7.530 -9.426 1.879
-9.235 -9.332 0.111
-8.137 -9.970 1.840
-7.917 -9.608 1.711
-9.913 -9.264 -0.634
-9.236 -9.323 0.100
-7.913 -9.658 1.764
-9.835 -9.259 -0.562
-7.951 -9.446 1.512
-9.236 -9.324 0.101
-7.648 -8.480 0.844
-9.189 -9.311 0.134
-7.679 -9.394 1.712
-7.957 -9.486 1.545
-7.507 -10.002 2.493
-9.228 -9.320 0.105
-7.507 -10.002 2.493
-7.381 -9.415 2.046
-10.410 -9.192 -1.203
-7.534 -9.356 1.814
-7.958 -9.488 1.545
-9.880 -9.258 -0.607
-9.203 -9.317 0.127
-9.835 -9.259 -0.562
-7.852 -10.055 2.201
-9.228 -9.321 0.107
-7.321 -9.423 2.113
-9.227 -9.320 0.106
-9.194 -9.314 0.134
-7.965 -9.652 1.704
-8.008 -9.489 1.497
-9.880 -9.258 -0.607
-6.949 -8.750 1.806
-9.203 -9.317 0.127
-7.390 -8.740 1.359
-7.504 -10.004 2.498
-7.389 -8.739 1.359
-7.591 -9.380 1.784
-7.504 -10.005 2.498
-7.504 -10.004 2.498
-7.932 -9.334 1.415
-7.958 -9.488 1.546
-7.958 -9.489 1.547
-8.276 -9.939 1.682
-8.062 -9.821 1.782
-7.587 -9.416 1.824
-9.227 -9.319 0.106
-7.958 -9.484 1.542
-8.041 -10.092 2.047
-7.581 -9.501 1.912
-7.920 -9.486 1.582
-7.911 -9.465 1.571
-7.909 -9.438 1.546
-9.227 -9.319 0.106
-7.589 -9.411 1.822
-7.481 -9.414 1.930
-7.327 -8.746 1.429
-9.227 -9.320 0.107
-7.343 -9.350 2.020
-7.683 -8.502 0.832
-7.859 -10.056 2.196
-7.965 -9.477 1.528
-7.965 -9.478 1.528
-7.562 -10.001 2.436
-9.227 -9.320 0.107
-7.513 -10.004 2.488
-7.965 -9.478 1.529
-7.916 -9.478 1.578
-8.137 -9.966 1.837
-9.227 -9.320 0.106
-8.270 -9.940 1.689
-9.193 -9.314 0.134
-7.146 -10.424 3.250
-7.376 -8.742 1.376
-7.916 -9.472 1.572
-7.916 -9.494 1.594
-7.343 -9.333 2.003
-8.125 -9.971 1.854
-9.226 -9.322 0.109
-7.540 -9.455 1.910
-9.227 -9.327 0.113
-7.916 -9.468 1.567
-7.562 -10.001 2.437
-7.453 -9.372 1.916
-9.226 -9.310 0.096
-7.770 -10.058 2.286
-7.366 -8.724 1.357
-7.264 -8.743 1.480
-6.820 -8.443 1.634
-8.058 -9.826 1.791
-8.335 -9.929 1.613
-7.376 -8.740 1.374
-7.770 -10.058 2.286
-7.595 -9.343 1.748
-7.286 -10.280 2.975
-8.271 -9.943 1.691
-9.193 -9.314 0.134
-7.514 -10.003 2.487
-7.916 -9.474 1.574
-9.834 -9.260 -0.561
-9.236 -9.323 0.101
-7.299 -9.330 2.042
-7.916 -9.477 1.577
-7.283 -9.363 2.092
-7.376 -8.738 1.372
-7.916 -9.479 1.578
-7.283 -9.363 2.093
-7.343 -9.346 2.016
-7.916 -9.484 1.584
-7.282 -9.300 2.031
-7.343 -9.351 2.021
-7.343 -9.350 2.020
-8.104 -9.637 1.555
-7.343 -9.362 2.031
-7.915 -9.452 1.553
-8.042 -10.091 2.045
-9.226 -9.316 0.103
-7.437 -8.746 1.319
-7.804 -9.628 1.840
-7.562 -10.001 2.436
-8.042 -10.091 2.045
-7.282 -9.366 2.096
-7.436 -8.739 1.313
-9.226 -9.320 0.107
-7.343 -9.353 2.023
-7.965 -9.478 1.528
-7.594 -9.399 1.802
-8.335 -9.934 1.618
-7.513 -10.004 2.488
-7.916 -9.476 1.576
-7.514 -10.004 2.488
-7.863 -9.645 1.802
-7.437 -8.746 1.320
-7.366 -8.724 1.357
-9.227 -9.320 0.106
-7.966 -9.477 1.527
-7.343 -9.338 2.007
-7.338 -9.206 1.881
-7.770 -10.058 2.286
-6.954 -8.750 1.801
-8.173 -8.591 0.413
-9.193 -9.314 0.134
-7.566 -9.534 1.964
-7.916 -9.477 1.577
-7.593 -9.436 1.839
-7.343 -9.350 2.021
-9.193 -9.305 0.125
-7.916 -9.477 1.576
-9.193 -9.314 0.133
-7.435 -8.738 1.314
-7.356 -9.333 1.967
-6.830 -9.179 2.373
-7.225 -9.215 1.990
-7.343 -9.349 2.019
-9.193 -9.314 0.134
-7.286 -10.280 2.975
-7.339 -9.224 1.898
-9.193 -9.316 0.136
-7.376 -8.743 1.377
-7.827 -9.620 1.813
-7.916 -9.481 1.580
-7.514 -10.004 2.488
-7.907 -9.463 1.570
-7.343 -9.354 2.024
-7.965 -9.485 1.536
-7.514 -10.004 2.488
-7.376 -8.742 1.376
-7.965 -9.479 1.529
-7.089 -9.088 2.014
-7.313 -8.829 1.527
-8.157 -9.894 1.759
-7.342 -9.383 2.054
-9.193 -9.308 0.128
-9.227 -9.320 0.107
-6.954 -8.749 1.801
-8.103 -9.877 1.779
-7.514 -10.004 2.488
-9.226 -9.317 0.104
-9.912 -9.265 -0.633
-7.342 -9.347 2.017
-7.282 -9.315 2.046
-6.952 -8.751 1.804
-9.202 -9.316 0.127
-7.943 -9.492 1.564
-8.131 -9.976 1.853
-7.862 -9.631 1.789
-8.282 -9.640 1.380
-7.818 -10.055 2.236
-7.965 -9.477 1.528
-7.514 -10.004 2.488
-7.376 -8.743 1.377
-7.563 -10.001 2.436
-7.514 -10.004 2.488
-8.136 -9.975 1.847
-9.193 -9.314 0.134
-7.437 -8.746 1.319
-7.496 -9.948 2.440
-7.281 -9.408 2.138
-7.591 -9.439 1.848
-7.965 -9.489 1.540
-7.181 -9.465 2.291
-9.193 -9.315 0.135
-7.514 -10.004 2.488
-7.437 -8.746 1.319
-9.193 -9.314 0.134
-7.916 -9.477 1.576
-9.879 -9.240 -0.625
-9.202 -9.317 0.128
-7.965 -9.478 1.528
-7.343 -9.352 2.022
-7.844 -9.387 1.556
-7.285 -10.280 2.975
-9.202 -9.317 0.128
-7.964 -9.455 1.506
-7.965 -9.479 1.529
-7.456 -9.384 1.925
-7.916 -9.458 1.559
-7.430 -8.713 1.291
-7.282 -9.331 2.063
-8.102 -9.946 1.851
-7.342 -9.307 1.978
-10.672 -9.602 -1.065
-7.976 -10.043 2.073
-5.801 -7.065 1.281
-9.866 -9.263 -0.589
-7.451 -9.704 2.253
-9.866 -9.263 -0.589
-11.148 -10.031 -1.144
-7.468 -8.840 1.387
-7.152 -8.986 1.850
-7.141 -8.902 1.777
-8.140 -10.014 1.882
-7.032 -9.514 2.490
-7.685 -9.494 1.817
-7.152 -9.032 1.896
-7.152 -9.061 1.925
-7.634 -9.458 1.834
-7.407 -8.863 1.467
-6.748 -8.760 2.029
-7.455 -10.484 3.022
-6.915 -9.458 2.566
-7.218 -9.526 2.315
-9.203 -9.318 0.128
-7.470 -9.516 2.048
-7.523 -9.489 1.962
-9.203 -9.318 0.128
-5.980 -7.529 1.570
-7.152 -8.933 1.797
-9.148 -9.229 0.084
-7.455 -10.482 3.019
-6.646 -9.370 2.720
-7.263 -9.282 2.036
-7.240 -10.016 2.772
-7.433 -8.975 1.557
-7.501 -8.786 1.301
-9.199 -9.286 0.098
-7.152 -8.971 1.835
-7.421 -9.299 1.878
-8.103 -10.013 1.919
-7.218 -9.525 2.314
-7.311 -8.784 1.485
-7.218 -9.525 2.314
-7.637 -10.021 2.382
-7.640 -9.501 1.870
-7.588 -10.024 2.435
-8.428 -9.284 0.868
-7.311 -8.784 1.485
-7.208 -9.322 2.112
-7.656 -9.487 1.840
-7.640 -9.506 1.874
-7.689 -9.498 1.818
-6.750 -8.834 2.100
-7.152 -8.991 1.855
-7.527 -9.500 1.972
-7.682 -9.519 1.847
-8.109 -9.953 1.864
-7.688 -9.486 1.807
-7.588 -10.024 2.435
-7.668 -9.578 1.908
-7.152 -8.988 1.851
-7.640 -9.499 1.868
-7.149 -8.916 1.782
-7.151 -9.050 1.914
-8.079 -9.998 1.928
-7.689 -9.497 1.817
-10.248 -9.484 -0.756
-6.961 -8.755 1.799
-7.624 -10.031 2.406
-7.253 -8.787 1.547
-6.520 -8.099 1.601
-7.418 -10.165 2.743
-9.202 -9.318 0.129
-7.439 -10.226 2.760
-8.129 -10.022 1.902
-7.494 -8.849 1.372
-7.401 -9.739 2.337
-8.129 -10.024 1.904
-7.899 -9.642 1.764
-9.227 -9.293 0.080
-7.971 -9.476 1.521
-7.541 -9.187 1.650
-7.429 -8.763 1.344
-7.342 -9.344 2.014
-7.916 -9.478 1.578
-7.965 -9.472 1.523
-7.342 -9.353 2.023
-7.342 -9.310 1.981
-7.332 -9.893 2.558
-7.535 -9.998 2.460
-7.535 -9.998 2.460
-9.151 -9.305 0.168
-7.535 -9.998 2.460
-7.535 -9.998 2.460
-7.965 -9.492 1.541
-7.286 -10.280 2.975
-7.866 -9.455 1.606
-8.107 -9.922 1.822
-7.342 -9.360 2.031
-7.876 -9.192 1.332
-7.342 -9.345 2.015
-7.965 -9.477 1.528
-7.436 -8.746 1.320
-7.342 -9.353 2.023
-8.418 -9.780 1.368
-7.342 -9.360 2.030
-7.313 -8.988 1.691
-7.436 -8.752 1.327
-7.159 -9.193 2.048
-7.909 -9.366 1.473
-6.937 -8.787 1.830
-7.597 -9.402 1.799
-7.375 -8.743 1.378
-7.342 -9.298 1.969
-7.342 -9.360 2.030
-7.342 -9.358 2.028
-8.424 -9.349 0.938
-7.876 -9.428 1.569
-7.586 -9.416 1.853
-7.891 -9.369 1.494
-7.963 -9.449 1.503
-9.880 -9.262 -0.603
-7.343 -9.341 2.011
-7.283 -9.368 2.097
-7.942 -9.366 1.442
-7.341 -9.260 1.932
-7.919 -9.487 1.584
-6.098 -9.277 3.106
-7.510 -10.006 2.494
-7.870 -9.486 1.632
-9.203 -9.316 0.127
-7.532 -9.424 1.890
-7.916 -9.481 1.580
-7.916 -9.478 1.578
-7.437 -8.746 1.319
-5.833 -7.479 1.668
-7.342 -9.349 2.019
-8.521 -9.421 0.910
-7.942 -9.483 1.552
-7.960 -9.460 1.517
-7.478 -9.455 1.972
-7.970 -9.844 1.862
-7.738 -9.419 1.698
-7.928 -9.416 1.504
-7.340 -9.243 1.918
-7.437 -8.746 1.320
-7.501 -9.418 1.915
-9.236 -9.324 0.102
-7.376 -8.742 1.376
-7.965 -9.479 1.529
-7.282 -9.364 2.094
-7.321 -9.908 2.585
-9.202 -9.317 0.128
-7.339 -9.429 2.101
-7.586 -9.419 1.828
-11.464 -10.105 -1.375
-7.375 -9.920 2.544
-7.736 -9.495 1.769
-7.177 -9.032 1.870
-7.687 -9.469 1.793
-9.203 -9.334 0.144
-7.175 -8.937 1.777
-6.125 -9.585 3.460
-7.736 -9.491 1.765
-8.100 -9.677 1.600
-7.177 -9.106 1.944
-6.087 -9.714 3.624
-7.688 -9.484 1.807
-7.443 -9.508 2.066
-7.478 -9.363 1.899
-8.468 -9.375 0.921
-7.178 -9.049 1.887
-9.237 -9.324 0.101
-7.727 -9.508 1.787
-7.633 -9.656 2.035
-7.736 -9.495 1.769
-7.273 -8.670 1.411
-7.588 -9.630 2.060
-7.343 -9.445 2.104
-7.176 -9.156 1.994
-7.681 -9.534 1.861
-8.087 -9.994 1.915
-7.177 -9.008 1.846
-7.115 -9.047 1.948
-9.203 -9.316 0.126
-7.178 -9.003 1.841
-7.736 -9.486 1.760
-7.334 -8.775 1.453
-7.420 -9.507 2.088
-8.468 -9.378 0.924
-7.115 -9.214 2.113
-7.177 -8.976 1.815
-7.178 -9.017 1.854
-7.178 -9.024 1.862
-7.572 -9.420 1.862
-9.203 -9.336 0.146
-7.691 -9.517 1.836
-7.390 -10.553 3.153
-7.504 -8.774 1.287
-7.500 -9.472 1.967
-7.334 -8.777 1.455
-7.177 -9.012 1.851
-7.334 -8.777 1.455
-7.718 -9.562 1.860
-6.896 -9.490 2.611
-7.113 -9.458 2.358
-7.687 -9.482 1.805
-7.334 -8.776 1.454
-6.859 -8.801 1.953
-6.891 -8.802 1.922
-7.977 -9.870 1.916
-7.736 -9.486 1.760
-7.149 -9.079 1.946
-6.676 -9.333 2.652
-7.331 -8.785 1.466
-7.177 -9.030 1.868
-7.734 -9.474 1.752
-7.351 -9.140 1.806
-7.226 -8.773 1.559
-7.183 -9.699 2.528
-7.102 -9.902 2.800
-6.968 -8.857 1.910
-7.736 -9.496 1.770
-7.413 -9.028 1.630
-7.500 -8.828 1.342
-6.473 -9.136 2.677
-7.736 -9.505 1.779
-7.523 -9.473 1.951
-8.006 -9.868 1.884
-7.736 -9.486 1.760
-7.736 -9.485 1.759
-7.496 -8.823 1.343
-7.511 -8.840 1.345
-7.687 -9.484 1.808
-8.076 -9.974 1.905
-7.182 -9.167 2.005
-7.720 -9.504 1.794
-7.334 -8.777 1.455
-7.534 -9.154 1.630
-5.777 -7.071 1.309
-7.736 -9.484 1.759
-7.177 -9.027 1.865
-7.495 -8.903 1.425
-7.725 -9.424 1.711
-5.353 -8.277 2.938
-7.115 -9.136 2.036
-7.731 -9.450 1.727
-7.687 -9.503 1.826
-7.159 -9.246 2.101
-7.519 -9.505 2.001
-8.077 -9.992 1.922
-7.177 -9.019 1.857
-7.687 -9.476 1.800
-6.884 -9.275 2.413
-7.519 -8.793 1.290
-7.123 -8.761 1.655
-7.286 -8.775 1.501
-7.174 -9.268 2.109
-7.286 -8.775 1.501
-7.175 -9.236 2.075
-7.725 -9.429 1.719
-7.463 -9.501 2.038
-7.666 -9.533 1.870
-7.368 -9.600 2.246
-7.334 -8.777 1.455
-8.099 -9.672 1.596
-7.385 -9.584 2.223
-7.733 -9.530 1.806
-7.176 -9.141 1.980
-7.258 -9.494 2.243
-7.735 -9.506 1.781
-8.091 -9.695 1.628
-7.372 -9.906 2.534
-7.143 -8.809 1.681
-7.213 -9.504 2.298
-8.114 -9.996 1.891
-7.440 -9.567 2.126
-7.114 -8.971 1.873
-6.021 -8.636 2.628
-7.176 -8.953 1.792
-7.423 -9.505 2.082
-7.177 -9.054 1.893
-7.977 -9.873 1.919
-5.415 -8.193 2.792
-7.770 -9.437 1.687
-6.028 -9.040 3.014
-7.082 -9.056 1.990
-6.987 -9.743 2.758
-7.274 -8.775 1.512
-8.065 -9.676 1.633
-7.683 -9.529 1.855
-7.721 -9.439 1.726
-7.138 -9.959 2.823
-7.172 -8.948 1.792
-7.203 -9.340 2.139
-7.274 -8.775 1.513
-7.177 -9.079 1.917
-7.421 -9.481 2.058
-7.334 -8.775 1.453
-8.113 -9.992 1.887
-7.177 -9.063 1.901
-7.578 -9.537 1.967
-6.268 -8.439 2.182
-7.152 -8.916 1.775
-7.176 -8.945 1.785
-8.478 -9.370 0.906
-7.425 -9.139 1.721
-9.203 -9.318 0.127
-7.334 -8.774 1.452
-7.178 -9.019 1.857
-7.177 -9.056 1.894
-6.668 -8.706 2.056
-7.148 -8.881 1.730
-5.415 -8.146 2.744
-7.116 -9.043 1.943
-5.969 -8.602 2.647
-7.731 -9.534 1.811
-7.208 -9.511 2.310
-6.748 -8.798 2.074
-7.274 -8.776 1.513
-7.334 -8.777 1.455
-6.515 -8.353 1.861
-7.376 -9.918 2.542
-7.736 -9.477 1.751
-7.060 -8.994 1.940
-8.112 -10.009 1.906
-7.177 -8.975 1.814
-7.246 -8.688 1.454
-6.574 -8.449 1.893
-7.277 -9.374 2.110
-7.922 -9.478 1.572
-8.269 -9.872 1.607
-7.322 -9.172 1.866
-8.107 -9.635 1.550
-7.298 -9.093 1.789
-7.336 -9.410 2.085
-5.241 -7.796 2.570
-7.740 -9.589 1.867
-7.208 -9.432 2.230
-6.867 -9.256 2.402
-8.014 -9.888 1.878
-7.368 -8.759 1.402
-9.746 -9.230 -0.503
-7.511 -9.489 1.974
-7.436 -8.746 1.320
-8.111 -10.013 1.903
-7.436 -8.746 1.320
-7.129 -9.394 2.277
-5.245 -7.786 2.554
-7.122 -6.742 -0.373
-7.493 -6.971 -0.504
-7.492 -6.972 -0.503
-7.375 -6.971 -0.386
-7.117 -6.744 -0.368
-7.493 -6.970 -0.506
-6.964 -6.656 -0.292
-7.493 -6.971 -0.504
-6.943 -6.551 -0.384
-7.118 -6.741 -0.370
-7.374 -6.978 -0.378
-7.375 -6.971 -0.385
-5.722 -6.599 0.890
-7.944 -7.498 -0.445
-9.676 -9.014 -0.655
-6.164 -6.352 0.207
-7.377 -6.970 -0.389
-7.493 -6.971 -0.504
-7.375 -6.971 -0.385
-6.106 -5.834 -0.257
-7.536 -6.976 -0.543
-7.363 -6.974 -0.370
-7.478 -6.974 -0.486
-7.065 -6.664 -0.391
-7.478 -6.974 -0.486
-6.955 -6.658 -0.280
-7.404 -6.902 -0.493
-7.478 -6.974 -0.486
-6.954 -6.664 -0.274
-5.721 -6.601 0.892
-7.362 -6.975 -0.369
-7.478 -6.974 -0.486
-6.689 -6.725 0.054
-9.241 -8.913 -0.324
-6.691 -6.724 0.050
-6.853 -6.664 -0.172
-7.478 -6.974 -0.486
-6.955 -6.657 -0.281
-9.789 -9.324 -0.450
-6.684 -7.465 0.776
-6.687 -6.728 0.059
-5.795 -6.581 0.809
-7.478 -6.974 -0.486
-7.406 -6.903 -0.493
-7.107 -6.747 -0.354
-6.954 -6.662 -0.275
-6.688 -6.725 0.054
-6.095 -5.836 -0.245
-7.478 -6.974 -0.486
-7.478 -6.974 -0.486
-7.478 -6.974 -0.486
-6.954 -6.662 -0.276
-9.793 -9.219 -0.561
-7.174 -6.760 -0.414
-6.954 -6.663 -0.274
-5.721 -6.600 0.892
-6.688 -6.725 0.054
-6.954 -6.660 -0.278
-6.954 -6.661 -0.277
-7.478 -6.974 -0.486
-7.478 -6.974 -0.486
-7.478 -6.976 -0.484
-7.363 -6.974 -0.370
-7.019 -6.555 -0.450
-7.369 -8.724 1.354
-7.039 -6.734 -0.295
-7.478 -6.974 -0.486
-7.021 -6.963 -0.038
-5.669 -6.586 0.929
-6.689 -6.725 0.054
-7.478 -6.974 -0.486
-5.680 -6.536 0.867
-10.412 -9.193 -1.205
-7.476 -6.975 -0.483
-6.877 -6.490 -0.375
-7.077 -6.634 -0.431
-5.728 -6.597 0.883
-7.164 -6.423 -0.731
-7.124 -6.366 -0.747
-6.952 -6.654 -0.282
-7.476 -6.975 -0.483
-6.884 -6.957 0.091
-7.476 -6.975 -0.483
-6.950 -6.683 -0.247
-7.365 -6.747 -0.617
-6.953 -6.659 -0.278
-7.125 -6.366 -0.748
-7.478 -6.974 -0.486
-7.478 -6.974 -0.486
-7.478 -6.974 -0.486
-7.478 -6.974 -0.486
-7.478 -6.974 -0.486
-9.797 -9.250 -0.534
-5.722 -6.600 0.891
-7.478 -6.974 -0.486
-6.691 -6.705 0.031
-7.096 -6.798 -0.297
-9.074 -8.777 -0.300
-4.961 -6.537 1.585
-7.478 -6.974 -0.486
-5.663 -6.630 0.977
-7.478 -6.974 -0.486
-7.478 -6.974 -0.486
-7.478 -6.974 -0.486
-7.110 -6.747 -0.358
-7.364 -6.974 -0.372
-7.023 -6.557 -0.451
-5.713 -6.596 0.896
-7.867 -7.429 -0.431
-7.478 -6.974 -0.486
-9.800 -9.240 -0.546
-7.366 -6.973 -0.375
-7.368 -6.973 -0.376
-6.954 -6.661 -0.277
-7.478 -6.974 -0.486
-7.478 -6.974 -0.486
-7.364 -6.974 -0.372
-6.680 -7.489 0.805
-8.580 -5.890 -2.679
-8.691 -6.968 -1.714
-5.683 -6.541 0.869
-7.364 -6.974 -0.371
-6.130 -6.244 0.129
-7.478 -6.974 -0.486
-7.478 -6.974 -0.486
-6.130 -6.278 0.163
-7.364 -6.975 -0.371
-7.475 -6.976 -0.481
-6.853 -6.663 -0.173
-5.713 -6.596 0.897
-7.368 -8.729 1.360
-5.722 -6.588 0.880
-9.180 -8.871 -0.304
-7.480 -6.974 -0.488
-9.050 -8.689 -0.415
-8.153 -6.214 -1.927
-7.021 -6.552 -0.455
-7.367 -6.746 -0.619
-6.896 -6.979 0.100
-7.480 -6.974 -0.489
-9.787 -9.213 -0.561
-7.367 -6.746 -0.619
-6.955 -6.661 -0.278
-7.480 -6.974 -0.489
-7.367 -6.746 -0.619
-7.101 -6.697 -0.396
-7.014 -6.975 -0.023
-7.480 -6.974 -0.489
-7.366 -6.754 -0.612
-6.589 -6.726 0.155
-6.979 -6.817 -0.152
-10.412 -9.194 -1.203
-4.992 -6.548 1.569
-6.692 -6.724 0.050
-5.714 -6.596 0.895
-6.954 -6.663 -0.275
-7.478 -6.974 -0.486
-6.093 -6.835 0.751
-7.364 -6.971 -0.374
-6.688 -6.729 0.058
-7.478 -6.974 -0.486
-8.518 -6.349 -2.146
-6.587 -6.658 0.084
-6.077 -6.342 0.285
-6.915 -6.981 0.083
-7.365 -6.747 -0.617
-7.478 -6.974 -0.486
-7.478 -6.974 -0.486
-7.478 -6.974 -0.486
-7.478 -6.974 -0.486
-6.954 -6.663 -0.274
-7.478 -6.974 -0.486
-5.676 -6.560 0.896
-7.364 -6.974 -0.371
-6.918 -6.807 -0.096
-7.478 -6.974 -0.486
-5.713 -6.596 0.896
-7.478 -6.974 -0.486
-6.689 -6.726 0.055
-10.411 -9.185 -1.212
-7.478 -6.974 -0.486
-8.327 -6.295 -2.023
-5.713 -6.596 0.896
-7.109 -6.748 -0.355
-6.946 -6.803 -0.125
-6.385 -6.617 0.244
-8.584 -5.906 -2.666
-8.590 -6.176 -2.399
-8.047 -5.750 -2.287
-6.690 -6.722 0.051
-7.365 -6.974 -0.372
-6.952 -6.668 -0.268
-7.022 -6.564 -0.444
-5.683 -6.533 0.860
-7.478 -6.974 -0.486
-7.362 -6.748 -0.614
-7.478 -6.974 -0.487
-6.772 -6.803 0.040
-6.947 -6.803 -0.126
-6.954 -6.659 -0.278
-9.190 -9.228 0.051
-7.126 -6.368 -0.747
-5.981 -5.934 -0.058
-6.761 -6.769 0.015
-6.975 -6.831 -0.135
-7.366 -6.973 -0.374
-9.203 -9.318 0.127
-6.591 -6.726 0.153
-9.800 -9.246 -0.541
-6.095 -5.836 -0.244
-7.478 -6.974 -0.486
-9.733 -9.092 -0.625
-7.478 -6.974 -0.486
-7.478 -6.973 -0.488
-7.221 -6.508 -0.696
-7.158 -6.409 -0.740
-8.513 -6.965 -1.540
-8.697 -6.078 -2.611
-8.581 -5.876 -2.692
-7.022 -6.557 -0.452
-6.951 -6.679 -0.255
-4.991 -6.548 1.571
-7.605 -7.293 -0.314
-8.221 -6.392 -1.817
-7.022 -6.555 -0.453
-7.363 -6.975 -0.369
-6.947 -6.802 -0.127
-5.715 -6.602 0.900
-6.698 -7.493 0.791
-6.962 -6.680 -0.262
-4.991 -6.547 1.571
-4.991 -6.548 1.571
-7.377 -6.971 -0.387
-6.963 -8.744 1.787
-5.712 -6.595 0.896
-6.092 -6.331 0.257
-7.496 -6.971 -0.508
-6.980 -6.816 -0.154
-8.232 -6.410 -1.809
-8.243 -8.020 -0.407
-7.496 -6.971 -0.508
-7.497 -6.971 -0.508
-7.495 -6.966 -0.512
-6.968 -6.657 -0.294
-6.598 -6.724 0.144
-6.967 -6.656 -0.295
-6.248 -6.528 0.290
-7.029 -6.960 -0.050
-6.094 -6.759 0.682
-6.960 -6.780 -0.168
-4.059 -5.605 1.570
-9.745 -9.235 -0.496
-7.116 -6.737 -0.375
-7.042 -6.626 -0.402
-6.702 -6.721 0.037
-6.967 -6.656 -0.295
-7.378 -6.971 -0.389
-6.973 -6.801 -0.159
-6.905 -6.974 0.087
-7.122 -6.743 -0.374
-9.634 -8.906 -0.717
-6.702 -7.483 0.776
-9.740 -9.228 -0.497
-6.105 -5.834 -0.256
-5.713 -6.595 0.895
-6.598 -6.725 0.144
-7.378 -6.971 -0.389
-6.698 -6.723 0.043
-6.967 -6.653 -0.297
-7.496 -6.971 -0.508
-7.496 -6.971 -0.508
-7.496 -6.971 -0.508
-7.497 -6.971 -0.508
-7.122 -6.743 -0.374
-7.064 -6.801 -0.246
-6.967 -6.658 -0.292
-7.497 -6.965 -0.514
-5.124 -6.377 1.264
-7.378 -6.972 -0.387
-7.122 -6.742 -0.374
-7.378 -6.970 -0.389
-5.569 -6.267 0.701
-5.464 -6.507 1.050
-6.699 -6.723 0.042
-6.160 -6.353 0.212
-7.496 -6.971 -0.508
-6.048 -6.337 0.310
-7.826 -6.367 -1.447
-9.738 -9.196 -0.532
-7.122 -6.708 -0.408
-6.967 -6.656 -0.294
-4.992 -6.548 1.571
-7.022 -6.970 -0.036
-7.082 -6.342 -0.730
-9.747 -9.231 -0.503
-5.714 -6.594 0.893
-7.381 -6.969 -0.394
-8.804 -6.597 -2.184
-7.491 -6.969 -0.505
-4.961 -6.543 1.588
-8.667 -6.570 -2.074
-8.801 -6.449 -2.330
-7.123 -6.743 -0.375
-6.196 -6.761 0.582
-9.152 -9.305 0.166
-7.037 -6.554 -0.468
-7.125 -6.745 -0.375
-6.701 -6.724 0.041
-7.380 -6.969 -0.392
-7.826 -6.370 -1.444
-6.557 -6.959 0.421
-7.380 -6.970 -0.392
-5.673 -6.663 0.997
-8.244 -6.345 -1.886
-4.993 -6.548 1.569
-7.382 -6.742 -0.638
-9.757 -9.217 -0.526
-6.501 -7.579 1.074
-7.172 -6.422 -0.740
-6.511 -6.660 0.150
-7.377 -6.971 -0.388
-7.913 -6.555 -1.346
-7.496 -6.971 -0.508
-6.177 -6.351 0.193
-8.797 -6.536 -2.238
-7.116 -6.740 -0.368
-7.379 -6.970 -0.391
-7.119 -6.733 -0.382
-6.732 -6.646 -0.073
-8.113 -7.860 -0.294
-6.957 -6.679 -0.257
-7.826 -6.370 -1.444
-6.866 -6.659 -0.191
-7.078 -6.344 -0.724
-6.335 -6.512 0.185
-4.069 -5.654 1.611
-5.712 -6.596 0.897
-7.024 -6.555 -0.456
-5.679 -6.548 0.878
-5.681 -6.537 0.868
-9.196 -9.316 0.133
-5.713 -6.595 0.895
-4.991 -6.548 1.570
-10.411 -9.193 -1.204
-7.770 -6.567 -1.190
-5.713 -6.595 0.895
-7.116 -6.737 -0.373
-6.694 -6.723 0.047
-5.713 -6.596 0.896
-8.327 -6.294 -2.025
-6.077 -6.342 0.285
-7.111 -6.747 -0.358
-6.044 -6.337 0.313
-7.111 -6.747 -0.358
-4.077 -5.489 1.438
-4.077 -5.489 1.438
-4.345 -5.795 1.461
-9.203 -9.316 0.126
-5.804 -6.578 0.797
-6.335 -6.571 0.243
-4.360 -6.177 1.834
-6.819 -6.694 -0.106
-6.855 -6.665 -0.174
-6.956 -6.663 -0.276
-7.070 -8.737 1.668
-6.958 -6.659 -0.282
-5.424 -6.423 0.995
-7.479 -6.974 -0.487
-6.956 -6.670 -0.269
-7.367 -8.725 1.356
-7.007 -6.974 -0.017
-7.217 -6.726 -0.499
-7.370 -6.747 -0.621
-6.046 -6.337 0.312
-7.114 -6.741 -0.367
-7.366 -6.974 -0.374
-8.356 -6.299 -2.046
-6.680 -7.546 0.861
-7.370 -6.746 -0.622
-7.025 -6.558 -0.453
-7.481 -6.975 -0.489
-8.792 -6.477 -2.293
-9.117 -7.070 -2.032
-6.108 -6.631 0.525
-7.539 -6.976 -0.546
-6.043 -6.338 0.316
-9.747 -9.021 -0.728
-6.950 -6.681 -0.249
-5.667 -6.549 0.894
-6.520 -6.677 0.165
-5.463 -6.507 1.052
-6.402 -7.615 1.216
-7.481 -6.974 -0.489
-9.790 -9.251 -0.525
-6.695 -6.724 0.046
-7.990 -6.434 -1.547
-5.477 -6.508 1.039
-7.481 -6.974 -0.489
-5.500 -6.280 0.791
-7.454 -6.956 -0.480
-8.156 -6.221 -1.923
-5.149 -6.202 1.065
-6.629 -6.804 0.187
-6.958 -6.660 -0.282
-7.481 -6.974 -0.490
-5.712 -6.596 0.897
-6.692 -6.724 0.050
-6.659 -6.767 0.120
-8.855 -9.627 0.728
-7.031 -6.553 -0.464
-9.195 -9.314 0.132
-5.662 -6.659 1.005
-9.196 -9.313 0.131
-6.594 -6.726 0.149
-5.425 -6.418 0.989
-9.196 -9.308 0.125
-9.196 -9.306 0.122
-5.130 -6.365 1.245
-9.527 -8.948 -0.564
-8.666 -8.850 0.189
-7.115 -6.745 -0.365
-6.958 -6.662 -0.279
-6.692 -6.725 0.051
-5.712 -6.596 0.897
-4.918 -6.559 1.649
-5.666 -6.585 0.931
-9.065 -7.127 -1.924
-5.826 -6.571 0.766
-7.367 -6.973 -0.375
-8.608 -6.441 -2.148
-6.682 -7.480 0.793
-4.077 -5.493 1.442
-4.179 -6.099 1.927
-8.330 -6.283 -2.038
-4.918 -6.556 1.645
-6.958 -6.658 -0.284
-7.481 -6.974 -0.489
-6.950 -6.676 -0.253
-9.136 -9.116 -0.013
-4.369 -5.957 1.612
-7.368 -8.726 1.357
-7.181 -6.744 -0.436
-5.825 -6.572 0.768
-6.958 -6.662 -0.279
-5.825 -6.571 0.767