-9.584 -8.294 -1.280
-9.584 -8.294 -1.280
-10.101 -7.625 -2.469
-10.101 -7.614 -2.480
-9.089 -7.669 -1.411
-9.947 -8.135 -1.803
-9.893 -7.688 -2.195
-9.700 -8.260 -1.433
-5.654 -7.774 2.133
-9.893 -7.682 -2.203
-9.134 -7.653 -1.471
-9.884 -8.088 -1.788
-9.885 -8.088 -1.788
-9.700 -8.255 -1.438
-9.644 -8.260 -1.375
-9.700 -8.258 -1.434
-9.885 -8.088 -1.788
-9.964 -8.212 -1.746
-9.892 -7.692 -2.191
-6.334 -8.138 1.812
-7.283 -6.698 -0.583
-7.985 -8.052 0.076
-8.712 -8.131 -0.571
-7.987 -8.052 0.074
-8.405 -8.112 -0.282
-7.989 -8.051 0.072
-7.415 -6.718 -0.696
-8.475 -7.985 -0.482
-8.712 -8.131 -0.570
-6.883 -8.226 1.339
-7.364 -6.700 -0.662
-8.416 -7.496 -0.908
-8.372 -7.992 -0.368
-8.060 -8.275 0.219
-9.616 -8.264 -1.344
-6.138 -7.444 1.281
-7.842 -8.221 0.387
-6.886 -8.222 1.341
-8.298 -8.400 0.099
-8.262 -8.100 -0.152
-9.938 -8.218 -1.715
-9.880 -8.102 -1.769
-8.282 -8.077 -0.195
-9.337 -8.286 -1.039
-9.843 -8.111 -1.723
-9.621 -8.264 -1.348
-9.938 -8.216 -1.716
-8.220 -8.136 -0.082
-7.946 -8.135 0.199
-9.942 -8.128 -1.804
-9.673 -8.262 -1.404
-9.880 -7.702 -2.169
-8.456 -8.045 -0.400
-8.266 -8.023 -0.233
-8.375 -7.993 -0.371
-8.201 -7.833 -0.355
-9.725 -8.278 -1.439
-9.877 -8.099 -1.770
-9.877 -8.099 -1.770
-9.839 -8.108 -1.722
-9.880 -7.697 -2.174
-9.880 -7.701 -2.170
-5.829 -8.065 2.250
-9.619 -8.263 -1.348
-8.218 -8.132 -0.076
-8.193 -7.992 -0.189
-8.402 -7.647 -0.744
-9.940 -8.128 -1.803
-8.226 -7.552 -0.663
-8.112 -8.089 -0.015
-5.620 -6.881 1.278
-9.720 -8.273 -1.439
-6.897 -8.359 1.473
-6.585 -7.873 1.302
-7.416 -6.718 -0.696
-4.833 -5.813 0.996
-6.589 -7.866 1.291
-8.174 -8.002 -0.160
-9.596 -8.274 -1.314
-9.726 -8.278 -1.440
-7.985 -8.194 0.220
-9.719 -8.242 -1.469
-10.143 -7.618 -2.518
-9.112 -8.466 -0.632
-9.730 -8.279 -1.442
-6.390 -8.129 1.748
-8.231 -8.483 0.254
-9.611 -8.268 -1.334
-8.076 -7.818 -0.245
-5.366 -6.659 1.309
-7.743 -8.632 0.900
-6.720 -7.783 1.074
-6.835 -7.781 0.958
-8.724 -8.127 -0.587
-5.899 -6.863 0.980
-5.944 -6.851 0.924
-8.492 -8.119 -0.362
-5.507 -6.660 1.169
-8.435 -7.580 -0.845
-7.710 -7.694 -0.006
-8.518 -8.116 -0.391
-8.222 -8.478 0.257
-8.357 -7.740 -0.608
-7.422 -6.717 -0.703
-8.267 -7.754 -0.499
-6.516 -8.223 1.705
-9.942 -8.218 -1.719
-9.113 -7.676 -1.428
-9.724 -8.271 -1.442
-8.042 -7.655 -0.376
-6.050 -8.023 1.975
-8.076 -7.812 -0.251
-8.002 -8.283 0.291
-9.834 -7.783 -2.042
-9.832 -7.725 -2.097
-8.148 -8.186 0.051
-8.148 -8.186 0.051
-6.520 -8.217 1.695
-8.191 -7.999 -0.180
-8.291 -7.995 -0.286
-5.636 -6.873 1.255
-6.333 -7.855 1.524
-8.323 -7.985 -0.326
-8.269 -8.048 -0.211
-6.187 -8.465 2.283
-8.323 -7.985 -0.326
-6.333 -7.858 1.528
-5.275 -6.739 1.482
-9.942 -8.215 -1.722
-8.149 -7.959 -0.180
-7.312 -8.634 1.328
-7.540 -8.945 1.413
-6.237 -8.619 2.389
-8.401 -7.924 -0.469
-5.621 -7.447 1.840
-6.790 -8.186 1.412
-8.545 -8.093 -0.443
-6.316 -7.735 1.435
-7.964 -8.231 0.273
-8.190 -7.992 -0.187
-9.783 -8.277 -1.500
-9.837 -7.765 -2.062
-8.195 -7.997 -0.186
-9.908 -8.134 -1.765
-8.085 -7.803 -0.269
-8.232 -7.549 -0.672
-6.099 -8.279 2.191
-6.636 -8.253 1.612
-8.229 -8.491 0.263
-7.260 -8.294 1.028
-8.300 -8.097 -0.193
-9.888 -7.714 -2.166
-5.881 -6.860 0.995
-8.040 -7.763 -0.267
-9.103 -8.493 -0.595
-6.887 -8.355 1.479
-5.722 -7.752 2.046
-5.284 -7.026 1.759
-6.525 -8.223 1.696
-7.279 -6.707 -0.571
-5.982 -7.735 1.769
-5.879 -6.860 0.998
-5.874 -7.543 1.684
-8.334 -7.978 -0.345
-7.357 -6.694 -0.662
-8.395 -8.335 -0.050
-6.826 -8.225 1.405
-8.082 -7.790 -0.279
-8.267 -8.486 0.221
-6.340 -8.399 2.072
-8.287 -8.012 -0.265
-8.241 -7.526 -0.703
-8.425 -8.102 -0.313
-6.619 -7.849 1.243
-6.014 -7.775 1.778
-6.337 -8.393 2.069
-6.221 -8.455 2.240
-5.822 -7.388 1.581
-5.451 -7.221 1.787
-8.507 -7.982 -0.518
-5.704 -7.588 1.900
-5.637 -7.628 2.003
-6.927 -8.238 1.316
-5.600 -7.562 1.978
-5.785 -7.588 1.820
-5.862 -7.581 1.736
-7.825 -8.086 0.272
-5.622 -7.766 2.157
-5.965 -7.778 1.830
-8.267 -8.482 0.217
-8.155 -8.246 0.092
-5.712 -7.593 1.886
-5.580 -6.878 1.316
-5.639 -6.872 1.250
-5.739 -7.362 1.639
-8.052 -7.814 -0.224
-5.530 -6.716 1.202
-7.241 -8.851 1.601
-8.261 -8.124 -0.127
-6.628 -7.853 1.238
-8.357 -8.292 -0.055
-5.857 -7.732 1.893
-5.153 -7.665 2.527
-7.853 -8.179 0.329
-5.510 -6.658 1.160
-5.499 -6.763 1.272
-5.770 -7.725 1.972
-6.034 -7.924 1.906
-6.022 -7.852 1.847
-5.772 -7.724 1.969
-5.772 -7.724 1.969
-8.288 -7.977 -0.302
-6.168 -7.457 1.265
-6.888 -8.350 1.473
-9.713 -8.168 -1.536
-9.664 -8.274 -1.381
-6.841 -8.220 1.384
-5.909 -6.863 0.970
-6.061 -8.674 2.624
-5.909 -6.863 0.970
-5.833 -7.750 1.933
-6.205 -8.228 2.034
-8.319 -8.100 -0.207
-5.734 -7.962 2.244
-9.850 -7.771 -2.069
-6.340 -7.850 1.513
-5.978 -7.726 1.764
-8.258 -7.671 -0.577
-8.233 -7.988 -0.232
-6.007 -7.749 1.760
-6.286 -7.329 1.033
-6.241 -8.483 2.254
-6.993 -8.233 1.243
-6.018 -7.927 1.924
-5.278 -6.730 1.470
-8.277 -8.094 -0.172
-8.126 -8.153 0.037
-5.482 -8.313 2.845
-6.071 -7.647 1.594
-7.137 -7.988 0.864
-7.765 -8.161 0.407
-8.263 -8.191 -0.059
-5.276 -7.140 1.882
-5.849 -7.575 1.742
-8.725 -8.127 -0.588
-5.964 -7.843 1.894
-8.282 -8.044 -0.229
-8.396 -8.039 -0.347
-5.954 -7.756 1.819
-8.193 -7.997 -0.184
-6.468 -8.359 1.901
-8.188 -7.992 -0.184
-6.787 -8.224 1.440
-8.192 -8.275 0.084
-8.223 -8.473 0.251
-6.919 -8.147 1.221
-6.891 -8.240 1.353
-8.567 -8.473 -0.097
-5.865 -7.732 1.885
-5.180 -6.772 1.606
-8.066 -7.608 -0.445
-5.947 -6.851 0.921
-6.624 -7.837 1.226
-3.957 -6.170 2.230
-5.742 -6.917 1.189
-5.570 -6.698 1.144
-7.829 -8.071 0.252
-6.333 -7.852 1.521
-6.333 -7.852 1.521
-6.410 -8.730 2.332
-5.613 -7.227 1.630
-5.745 -7.727 2.000
-6.924 -8.238 1.319
-6.333 -7.852 1.522
-5.636 -6.852 1.233
-6.791 -8.192 1.417
-9.910 -8.136 -1.765
-7.540 -8.948 1.416
-8.321 -7.985 -0.324
-5.851 -7.551 1.714
-5.931 -7.818 1.901
-6.501 -7.797 1.309
-6.890 -8.350 1.471
-6.777 -8.229 1.456
-5.833 -7.740 1.923
-5.914 -7.831 1.931
-6.741 -8.190 1.458
-5.861 -7.582 1.738
-6.447 -8.341 1.904
-5.740 -7.731 2.008
-8.181 -7.996 -0.174
-6.010 -7.869 1.877
-8.229 -8.481 0.254
-6.524 -8.232 1.705
-8.227 -7.555 -0.662
-4.855 -6.915 2.075
-8.387 -8.010 -0.366
-6.791 -8.227 1.440
-5.774 -7.606 1.848
-6.276 -8.613 2.343
-6.147 -7.445 1.272
-5.564 -7.217 1.670
-7.100 -8.141 1.053
-7.999 -8.045 0.055
-8.547 -8.087 -0.450
-6.521 -8.218 1.695
-6.971 -8.600 1.637
-6.032 -7.777 1.762
-5.873 -7.832 1.971
-5.770 -7.582 1.828
-5.993 -7.855 1.879
-5.281 -6.743 1.480
-5.554 -6.703 1.166
-6.791 -8.226 1.439
-5.473 -7.744 2.286
-6.347 -8.132 1.793
-5.922 -7.828 1.920
-6.114 -7.775 1.680
-8.231 -8.480 0.251
-6.600 -7.849 1.261
-5.832 -7.740 1.924
-8.182 -7.996 -0.174
-7.542 -8.946 1.412
-8.251 -8.134 -0.106
-8.377 -7.994 -0.373
-6.333 -7.857 1.526
-5.969 -7.653 1.698
-5.739 -7.589 1.855
-5.936 -7.676 1.750
-5.094 -7.678 2.599
-5.873 -7.579 1.723
-5.692 -7.743 2.065
-6.791 -8.224 1.439
-6.232 -7.942 1.716
-5.952 -7.780 1.845
-8.280 -8.076 -0.194
-8.212 -8.305 0.104
-5.969 -7.652 1.698
-5.763 -7.727 1.982
-5.693 -7.595 1.919
-6.608 -7.847 1.252
-8.234 -8.150 -0.075
-5.832 -7.740 1.925
-6.080 -7.995 1.929
-6.333 -7.856 1.525
-6.335 -7.855 1.522
-8.242 -8.125 -0.106
-6.517 -8.224 1.705
-5.569 -7.548 1.988
-5.524 -6.685 1.176
-6.335 -7.855 1.522
-5.635 -6.873 1.256
-5.336 -7.538 2.218
-6.341 -8.134 1.801
-5.937 -7.934 2.012
-9.458 -8.173 -1.273
-5.560 -7.239 1.696
-5.969 -7.652 1.697
-5.501 -7.600 2.112
-5.633 -6.868 1.252
-8.269 -8.022 -0.236
-8.263 -8.029 -0.223
-5.989 -7.752 1.780
-6.605 -7.854 1.262
-5.761 -7.718 1.973
-5.832 -7.740 1.924
-5.941 -6.846 0.922
-6.233 -8.491 2.270
-8.725 -8.127 -0.587
-5.474 -7.460 2.001
-6.230 -7.931 1.706
-5.998 -7.777 1.796
-6.195 -7.851 1.626
-5.561 -6.699 1.154
-7.864 -8.214 0.362
-6.148 -7.917 1.775
-7.257 -8.306 1.043
-5.279 -6.737 1.476
-6.549 -8.611 2.037
-6.038 -7.859 1.840
-6.961 -7.722 0.774
-8.549 -8.209 -0.327
-6.145 -6.994 0.858
-6.521 -8.225 1.701
-5.624 -7.470 1.840
-7.229 -8.428 1.207
-5.281 -6.748 1.486
-6.084 -7.994 1.923
-5.918 -7.834 1.935
-5.975 -7.657 1.697
-7.182 -8.199 1.029
-7.826 -8.192 0.378
-7.118 -8.584 1.469
-5.750 -7.604 1.870
-5.595 -7.567 1.989
-5.829 -7.743 1.929
-5.741 -7.731 2.006
-5.996 -7.823 1.839
-8.227 -8.320 0.098
-5.928 -7.756 1.846
-6.386 -7.605 1.236
-5.919 -7.746 1.835
-6.028 -8.054 2.029
-6.330 -7.868 1.541
-7.545 -8.951 1.414
-6.330 -7.868 1.540
-8.180 -8.007 -0.161
-8.055 -7.774 -0.268
-6.861 -8.253 1.393
-6.456 -8.345 1.899
-6.037 -7.857 1.838
-5.916 -7.831 1.932
-5.660 -7.795 2.149
-6.496 -7.803 1.320
-5.914 -7.809 1.913
-6.588 -7.868 1.293
-6.156 -7.816 1.670
-6.004 -7.819 1.826
-5.397 -7.069 1.689
-5.825 -8.068 2.257
-5.772 -7.729 1.974
-5.452 -7.459 2.021
-8.226 -8.479 0.255
-8.188 -7.995 -0.181
-6.598 -7.864 1.279
-5.684 -7.597 1.929
-6.779 -8.227 1.453
-6.091 -8.026 1.933
-6.777 -8.186 1.424
-5.926 -7.620 1.707
-5.650 -7.479 1.825
-8.145 -8.185 0.053
-6.885 -8.240 1.359
-6.082 -7.993 1.924
-5.288 -6.205 0.929
-6.317 -8.134 1.825
-5.929 -7.832 1.917
-5.751 -7.655 1.917
-5.782 -7.592 1.827
-8.145 -7.920 -0.218
-5.848 -7.735 1.904
-6.118 -7.332 1.229
-5.528 -7.583 2.071
-5.734 -7.729 2.012
-5.639 -7.778 2.153
-5.727 -7.632 1.918
-5.447 -7.459 2.026
-6.601 -7.859 1.271
-5.742 -7.592 1.856
-7.552 -8.950 1.407
-5.596 -7.358 1.769
-6.072 -8.079 2.017
-6.153 -7.919 1.772
-5.600 -7.226 1.642
-7.552 -8.950 1.407
-8.394 -8.116 -0.267
-5.597 -7.223 1.642
-6.143 -7.728 1.593
-5.938 -7.821 1.898
-6.150 -7.611 1.473
-5.825 -7.377 1.568
-6.217 -8.458 2.246
-6.844 -7.709 0.878
-5.723 -7.705 1.997
-6.456 -8.344 1.899
-5.774 -7.677 1.916
-9.822 -7.699 -2.114
-5.555 -7.450 1.909
-6.367 -7.691 1.343
-6.329 -7.866 1.539
-7.162 -8.374 1.210
-8.275 -8.054 -0.211
-6.513 -8.237 1.721
-8.225 -7.558 -0.656
-5.896 -8.002 2.119
-5.676 -7.564 1.889
-6.152 -7.914 1.767
-8.201 -8.000 -0.188
-6.513 -8.237 1.721
-6.317 -8.135 1.826
-5.760 -7.656 1.912
-6.758 -8.190 1.446
-6.317 -8.135 1.826
-6.500 -7.802 1.316
-5.776 -7.730 1.971
-5.115 -7.675 2.576
-6.907 -8.354 1.458
-6.318 -8.610 2.298
-5.826 -8.066 2.254
-4.999 -7.316 2.333
-5.440 -7.272 1.850
-6.328 -7.866 1.540
-5.658 -6.714 1.071
-6.039 -8.068 2.032
-5.921 -7.738 1.834
-5.711 -7.594 1.900
-7.560 -8.595 1.044
-6.231 -7.934 1.709
-5.440 -7.272 1.850
-8.228 -8.304 0.086
-6.135 -7.626 1.505
-6.317 -8.134 1.825
-6.507 -8.570 2.038
-5.935 -7.423 1.487
-6.290 -8.498 2.220
-6.323 -8.133 1.818
-5.485 -7.742 2.273
-5.598 -7.225 1.643
-6.595 -7.866 1.284
-5.481 -6.714 1.249
-6.105 -7.934 1.835
-5.999 -8.255 2.273
-8.225 -8.277 0.064
-5.963 -7.654 1.705
-5.920 -7.760 1.846
-7.077 -8.143 1.078
-6.152 -7.914 1.769
-6.040 -8.057 2.020
-5.639 -7.779 2.154
-5.757 -6.945 1.202
-5.912 -7.804 1.910
-7.552 -8.950 1.407
-5.674 -7.563 1.890
-5.957 -7.692 1.747
-6.091 -7.995 1.918
-6.330 -7.865 1.537
-5.756 -6.954 1.212
-6.230 -7.930 1.705
-6.457 -8.343 1.897
-5.935 -7.422 1.486
-6.782 -8.226 1.449
-6.328 -7.866 1.540
-6.458 -8.345 1.897
-5.934 -7.418 1.483
-6.258 -8.507 2.262
-5.213 -6.785 1.585
-5.748 -7.732 2.001
-7.832 -8.212 0.393
-5.856 -8.334 2.491
-5.523 -7.441 1.930
-5.835 -7.263 1.435
-7.095 -8.176 1.092
-5.961 -7.846 1.897
-5.905 -7.824 1.938
-6.234 -7.964 1.739
-5.511 -7.022 1.528
-6.454 -8.340 1.897
-5.835 -7.742 1.924
-7.933 -8.250 0.328
-5.599 -7.221 1.638
-5.835 -7.742 1.924
-6.919 -8.359 1.450
-8.250 -8.515 0.266
-9.822 -8.126 -1.686
-5.948 -7.595 1.665
-6.320 -8.138 1.826
-5.849 -7.599 1.768
-6.736 -8.246 1.514
-4.162 -6.078 1.932
-5.815 -7.659 1.848
-6.148 -7.994 1.859
-9.155 -8.291 -0.854
-9.725 -8.277 -1.439
-7.340 -6.724 -0.615
-6.050 -8.047 2.001
-9.465 -8.173 -1.281
-4.887 -6.882 2.012
-5.175 -7.172 2.014
-5.818 -8.012 2.206
-9.620 -8.264 -1.347
-5.377 -7.206 1.843
-5.756 -8.183 2.439
-6.338 -7.855 1.520
-4.887 -6.884 2.014
-6.050 -8.047 2.001
-5.886 -7.534 1.663
-5.536 -7.269 1.751
-6.235 -8.498 2.276
-5.656 -7.739 2.099
-5.540 -7.294 1.767
-6.028 -7.802 1.787
-5.919 -7.402 1.482
-8.208 -7.261 -0.932
-6.552 -8.219 1.664
-7.538 -7.291 -0.231
-6.344 -7.854 1.512
-7.538 -7.291 -0.231
-6.596 -8.205 1.606
-5.661 -7.583 1.935
-6.288 -8.460 2.178
-8.226 -7.255 -0.956
-6.257 -7.810 1.556
-6.552 -7.205 0.664
-6.219 -8.381 2.177
-5.415 -7.852 2.422
-7.557 -7.284 -0.257
-6.563 -8.206 1.641
-7.557 -7.284 -0.257
-6.257 -7.810 1.556
-6.563 -8.206 1.641
-6.349 -7.840 1.493
-6.608 -8.192 1.581
-6.608 -8.192 1.581
-6.563 -8.206 1.641
-6.219 -8.381 2.177
-7.557 -7.284 -0.257
-7.017 -7.588 0.572
-7.557 -7.284 -0.257
-7.017 -7.588 0.572
-5.578 -7.578 2.013
-5.416 -7.852 2.421
-5.578 -7.598 2.033
-6.288 -8.460 2.178
-6.201 -7.794 1.596
-5.819 -7.804 1.995
-7.017 -7.588 0.573
-6.563 -8.206 1.641
-6.578 -6.943 0.379
-7.557 -7.284 -0.257
-6.563 -8.206 1.641
-7.017 -7.588 0.573
-7.557 -7.284 -0.257
-7.557 -7.284 -0.257
-6.164 -8.022 1.855
-7.268 -7.712 0.450
-6.980 -7.290 0.320
-8.226 -7.255 -0.956
-5.844 -7.802 1.969
-6.608 -8.192 1.582
-6.219 -8.381 2.177
-6.009 -7.648 1.630
-7.557 -7.284 -0.257
-6.349 -7.840 1.493
-6.349 -7.840 1.493
-7.557 -7.284 -0.257
-7.557 -7.284 -0.257
-8.226 -7.255 -0.956
-6.081 -7.938 1.874
-6.563 -8.206 1.641
-7.268 -7.713 0.451
-6.608 -8.192 1.582
-5.578 -7.596 2.031
-6.164 -8.022 1.855
-5.845 -7.799 1.965
-6.349 -7.840 1.493
-6.038 -7.952 1.903
-6.563 -8.206 1.641
-6.349 -7.840 1.493
-7.410 -7.268 -0.127
-8.226 -7.255 -0.956
-6.086 -8.271 2.201
-7.268 -7.713 0.451
-6.009 -7.649 1.631
-5.416 -7.852 2.422
-7.017 -7.588 0.573
-6.608 -8.192 1.581
-7.017 -7.588 0.572
-6.009 -7.649 1.631
-7.268 -7.713 0.451
-6.219 -8.381 2.177
-6.219 -8.381 2.177
-6.563 -8.206 1.641
-7.017 -7.588 0.572
-7.268 -7.713 0.451
-8.080 -7.242 -0.823
-6.349 -7.840 1.493
-5.113 -7.516 2.415
-5.845 -7.801 1.967
-6.219 -8.381 2.177
-6.578 -6.943 0.379
-5.415 -7.852 2.422
-6.219 -8.381 2.177
-6.000 -8.177 2.185
-5.416 -7.852 2.422
-8.226 -7.255 -0.956
-6.550 -7.171 0.633
-6.563 -8.206 1.640
-6.608 -8.192 1.581
-6.009 -7.648 1.630
-6.219 -8.381 2.177
-5.415 -7.852 2.422
-7.557 -7.284 -0.257
-6.745 -7.672 0.931
-5.112 -7.515 2.414
-6.745 -7.672 0.931
-5.578 -7.591 2.026
-7.557 -7.284 -0.257
-6.525 -8.224 1.697
-5.719 -8.451 2.748
-6.971 -7.307 0.346
-6.071 -8.243 2.185
-5.747 -8.135 2.388
-6.608 -8.192 1.582
-5.054 -7.479 2.438
-6.745 -7.672 0.932
-7.183 -7.293 0.127
-6.349 -7.839 1.493
-5.845 -7.802 1.968
-6.238 -8.021 1.778
-5.845 -7.799 1.965
-7.183 -7.293 0.127
-7.557 -7.284 -0.257
-4.927 -7.607 2.688
-5.845 -7.745 1.917
-6.375 -7.839 1.466
-5.416 -7.852 2.421
-7.268 -7.713 0.451
-6.348 -7.847 1.501
-6.047 -7.799 1.761
-7.410 -7.267 -0.127
-5.251 -7.734 2.492
-7.037 -7.272 0.251
-4.577 -7.651 3.069
-6.563 -8.206 1.641
-6.375 -7.839 1.466
-6.349 -7.839 1.493
-6.525 -8.224 1.697
-5.054 -7.478 2.438
-6.563 -8.206 1.641
-4.964 -7.910 2.961
-7.557 -7.284 -0.258
-4.857 -7.029 2.187
-5.054 -7.477 2.437
-5.826 -7.741 1.931
-6.375 -7.839 1.466
-5.251 -7.731 2.489
-6.525 -8.224 1.697
-5.416 -7.852 2.421
-6.745 -7.672 0.932
-5.328 -8.409 3.096
-6.608 -8.192 1.582
-6.086 -8.263 2.194
-6.680 -7.748 1.073
-5.598 -8.144 2.528
-6.163 -8.380 2.233
-4.927 -7.607 2.688
-5.937 -7.622 1.677
-7.557 -7.284 -0.257
-6.217 -8.379 2.177
-6.217 -8.379 2.177
-4.927 -7.607 2.688
-5.774 -8.153 2.365
-6.524 -8.222 1.696
-6.525 -8.224 1.697
-6.525 -8.224 1.697
-7.017 -7.588 0.572
-7.182 -7.293 0.127
-6.349 -7.839 1.493
-6.375 -7.839 1.466
-5.309 -8.415 3.121
-5.101 -7.672 2.577
-6.085 -8.268 2.200
-6.209 -6.913 0.718
-6.849 -6.983 0.149
-6.328 -7.851 1.525
-5.827 -7.741 1.931
-6.562 -8.203 1.638
-7.268 -7.713 0.451
-7.182 -7.293 0.127
-6.524 -8.221 1.694
-6.608 -8.192 1.582
-5.827 -7.741 1.931
-5.820 -7.803 1.994
-5.309 -8.415 3.121
-6.680 -7.748 1.073
-5.204 -8.033 2.832
-5.355 -7.563 2.213
-5.320 -7.771 2.453
-7.557 -7.284 -0.258
-6.608 -8.192 1.582
-6.163 -8.380 2.233
-5.700 -8.455 2.771
-5.054 -7.480 2.439
-6.204 -8.378 2.190
-6.517 -8.233 1.714
-5.069 -7.847 2.788
-6.375 -7.833 1.463
-7.545 -7.288 -0.242
-7.545 -7.288 -0.242
-5.821 -7.738 1.933
-6.665 -7.755 1.095
-7.398 -7.271 -0.112
-6.080 -7.939 1.876
-6.348 -7.838 1.492
-6.190 -8.380 2.205
-5.070 -7.478 2.422
-6.525 -8.221 1.694
-6.525 -8.221 1.694
-6.348 -7.838 1.492
-5.416 -7.851 2.421
-5.416 -7.851 2.421
-6.525 -8.221 1.694
-4.579 -7.651 3.067
-5.990 -8.252 2.279
-6.536 -7.199 0.675
-5.821 -7.737 1.933
-6.690 -7.198 0.524
-6.538 -7.248 0.721
-6.348 -7.838 1.492
-6.607 -8.188 1.578
-6.348 -7.838 1.492
-6.196 -8.384 2.203
-5.822 -7.738 1.932
-5.621 -7.888 2.283
-6.525 -8.221 1.694
-6.525 -8.220 1.694
-6.091 -8.024 1.937
-6.190 -8.044 1.856
-6.537 -7.190 0.665
-6.038 -7.777 1.750
-5.416 -7.851 2.421
-6.155 -8.382 2.242
-6.242 -8.022 1.776
-6.563 -8.203 1.637
-6.491 -7.065 0.587
-6.524 -8.217 1.691
-5.416 -7.852 2.421
-6.535 -7.219 0.696
-5.698 -8.338 2.656
-6.525 -8.221 1.694
-6.088 -7.983 1.899
-5.952 -7.897 1.948
-5.382 -7.921 2.546
-5.382 -7.921 2.545
-5.070 -7.480 2.424
-6.037 -7.798 1.771
-5.718 -8.451 2.748
-5.952 -7.897 1.949
-8.219 -7.257 -0.946
-6.563 -8.203 1.638
-5.951 -7.895 1.948
-6.242 -8.022 1.776
-5.123 -7.490 2.379
-5.821 -7.738 1.933
-5.991 -8.252 2.278
-6.140 -8.007 1.870
-5.458 -7.031 1.589
-6.047 -7.799 1.761
-8.219 -7.258 -0.946
-6.607 -8.185 1.576
-6.140 -8.007 1.870
-6.047 -7.799 1.761
-6.347 -7.839 1.494
-6.525 -8.217 1.690
-6.204 -6.920 0.730
-6.011 -8.233 2.231
-6.525 -8.221 1.694
-6.216 -8.380 2.178
-6.374 -7.838 1.467
-8.073 -7.244 -0.814
-4.412 -6.529 2.133
-7.402 -7.271 -0.116
-5.990 -8.252 2.279
-6.374 -7.838 1.467
-6.496 -7.065 0.583
-5.068 -7.482 2.428
-5.123 -7.495 2.384
-5.990 -8.252 2.279
-6.637 -7.142 0.518
-5.990 -8.252 2.279
-6.140 -8.007 1.870
-5.069 -7.479 2.424
-6.680 -7.750 1.075
-6.525 -8.221 1.694
-6.348 -7.839 1.493
-6.010 -7.902 1.896
-6.608 -8.188 1.578
-5.991 -8.252 2.278
-5.458 -7.031 1.589
-5.542 -8.219 2.694
-6.310 -7.649 1.345
-5.415 -7.852 2.422
-5.821 -7.738 1.933
-5.865 -7.401 1.544
-5.990 -8.252 2.278
-6.573 -7.053 0.495
-6.234 -7.056 0.836
-6.140 -8.007 1.871
-5.991 -8.252 2.278
-5.196 -8.034 2.840
-6.140 -8.007 1.871
-4.928 -7.607 2.687
-7.267 -7.712 0.451
-6.326 -7.838 1.517
-5.405 -6.982 1.591
-7.029 -7.274 0.262
-6.711 -7.200 0.505
-6.752 -8.699 1.959
-7.737 -8.989 1.261
-6.752 -8.699 1.959
-6.364 -8.692 2.336
-6.366 -8.692 2.335
-6.315 -8.286 1.978
-6.165 -7.922 1.768
-6.365 -8.692 2.335
-6.236 -8.433 2.204
-6.314 -8.290 1.983
-6.550 -8.407 1.842
-5.772 -8.670 2.911
-5.522 -8.452 2.946
-6.922 -8.483 1.564
-6.877 -8.519 1.637
-5.985 -7.763 1.791
-5.985 -7.763 1.791
-6.828 -8.514 1.685
-6.260 -7.316 1.066
-6.301 -8.185 1.899
-5.832 -8.410 2.577
-6.877 -8.519 1.637
-5.785 -8.407 2.621
-5.831 -8.411 2.577
-5.783 -6.666 0.897
-6.562 -8.285 1.737
-6.437 -8.148 1.711
-6.314 -8.447 2.136
-6.310 -8.439 2.131
-5.831 -8.410 2.577
-6.887 -8.350 1.473
-6.314 -8.286 1.979
-6.755 -8.699 1.956
-7.737 -8.989 1.260
-5.828 -8.411 2.582
-6.877 -8.521 1.639
-5.832 -8.410 2.577
-5.832 -8.408 2.574
-6.887 -8.350 1.473
-7.682 -8.999 1.322
-7.001 -8.537 1.538
-7.737 -8.989 1.260
-6.000 -7.919 1.935
-7.540 -8.945 1.413
-6.314 -8.286 1.979
-6.164 -7.923 1.769
-5.869 -8.197 2.325
-6.877 -8.520 1.638
-6.877 -8.519 1.637
-6.246 -8.431 2.187
-6.911 -8.350 1.449
-6.888 -8.350 1.473
-6.181 -7.671 1.488
-6.273 -8.727 2.471
-6.365 -8.692 2.335
-6.018 -8.063 2.049
-6.314 -8.298 1.991
-7.737 -8.989 1.260
-6.719 -9.054 2.330
-6.217 -8.197 1.991
-6.365 -8.694 2.337
-7.567 -8.946 1.387
-6.365 -8.693 2.336
-7.001 -8.537 1.538
-6.803 -8.190 1.402
-6.237 -8.433 2.202
-7.737 -8.989 1.260
-7.723 -8.999 1.285
-6.164 -7.923 1.769
-7.737 -8.989 1.260
-7.737 -8.989 1.260
-5.831 -8.409 2.576
-6.829 -8.514 1.682
-6.217 -8.197 1.991
-6.878 -8.519 1.637
-6.240 -8.496 2.257
-6.241 -9.001 2.773
-6.719 -9.053 2.330
-5.983 -7.775 1.801
-6.920 -8.483 1.566
-6.217 -8.196 1.991
-6.365 -8.693 2.335
-6.515 -8.544 2.016
-7.737 -8.989 1.261
-6.687 -8.254 1.576
-6.164 -7.922 1.768
-6.754 -8.699 1.957
-6.999 -8.537 1.540
-6.999 -8.537 1.540
-6.740 -8.250 1.519
-6.754 -8.699 1.957
-6.672 -8.550 1.877
-6.017 -8.063 2.051
-6.999 -8.537 1.540
-5.992 -7.762 1.777
-6.532 -7.995 1.472
-6.999 -8.537 1.540
-7.737 -8.989 1.261
-6.763 -9.057 2.289
-6.301 -8.113 1.821
-6.366 -8.691 2.333
-7.001 -8.537 1.539
-6.366 -8.690 2.332
-6.265 -8.805 2.554
-6.420 -8.470 2.062
-5.993 -7.765 1.780
-5.897 -8.352 2.465
-6.791 -8.189 1.414
-6.041 -7.853 1.805
-6.365 -8.692 2.334
-6.791 -8.189 1.414
-6.491 -7.994 1.510
-6.499 -8.417 1.902
-6.764 -8.188 1.439
-7.737 -8.989 1.261
-6.491 -7.993 1.510
-6.306 -8.827 2.536
-7.001 -8.537 1.539
-6.746 -8.245 1.509
-6.719 -9.053 2.329
-6.702 -8.220 1.526
-6.749 -8.243 1.503
-6.896 -8.353 1.468
-7.541 -8.950 1.417
-6.532 -7.995 1.471
-7.001 -8.537 1.538
-6.492 -7.993 1.510
-5.832 -8.410 2.576
-6.877 -8.520 1.639
-5.936 -7.705 1.775
-6.354 -8.112 1.760
-5.717 -8.173 2.468
-6.724 -8.237 1.522
-5.777 -6.665 0.902
-6.217 -7.607 1.404
-6.829 -8.512 1.680
-7.540 -8.950 1.418
-6.405 -8.470 2.077
-6.041 -7.824 1.773
-6.756 -8.699 1.954
-5.887 -8.353 2.475
-6.511 -8.230 1.718
-5.886 -8.351 2.475
-6.919 -8.353 1.444
-6.358 -9.189 2.836
-6.511 -8.230 1.718
-5.858 -7.292 1.444
-6.755 -8.245 1.499
-6.224 -7.896 1.682
-6.406 -8.472 2.078
-6.390 -8.198 1.809
-7.737 -8.989 1.261
-6.533 -7.995 1.471
-6.358 -9.189 2.835
-7.777 -9.001 1.232
-7.737 -8.989 1.261
-6.406 -8.473 2.079
-6.238 -8.433 2.201
-6.371 -8.278 1.899
-7.683 -8.987 1.313
-6.511 -8.230 1.718
-6.359 -9.180 2.827
-5.828 -8.412 2.583
-6.214 -7.610 1.410
-5.828 -8.412 2.582
-6.877 -8.519 1.638
-5.505 -7.799 2.285
-5.130 -8.217 3.083
-6.725 -8.247 1.530
-5.770 -7.958 2.199
-6.215 -8.189 1.986
-6.268 -8.680 2.430
-7.033 -8.251 1.227
-6.301 -8.185 1.898
-6.729 -8.243 1.524
-6.267 -8.161 1.908
-7.008 -8.248 1.251
-7.541 -8.950 1.417
-6.571 -8.108 1.542
-6.760 -9.047 2.282
-6.672 -8.549 1.876
-6.719 -9.053 2.329
-7.737 -8.989 1.261
-6.309 -9.210 2.905
-6.435 -7.995 1.566
-5.887 -8.352 2.475
-6.264 -8.805 2.555
-6.405 -8.472 2.079
-6.532 -7.995 1.471
-6.309 -9.210 2.905
-6.720 -9.054 2.331
-5.738 -8.662 2.938
-6.485 -7.994 1.517
-6.234 -8.680 2.447
-6.267 -8.632 2.382
-6.924 -8.482 1.562
-6.427 -8.331 1.912
-6.234 -8.733 2.500
-7.009 -8.248 1.250
-7.541 -8.950 1.417
-6.401 -8.159 1.759
-7.723 -8.999 1.285
-6.015 -8.154 2.138
-6.145 -8.016 1.877
-6.164 -7.922 1.768
-6.719 -9.053 2.329
-6.492 -7.993 1.509
-6.500 -8.417 1.901
-5.993 -7.765 1.780
-7.001 -8.537 1.538
-6.406 -8.464 2.070
-6.405 -8.473 2.079
-5.712 -7.793 2.090
-6.672 -8.549 1.875
-7.777 -9.001 1.233
-7.737 -8.989 1.261
-5.930 -7.415 1.484
-5.887 -8.357 2.480
-5.160 -7.306 2.152
-6.145 -8.013 1.873
-5.963 -7.732 1.782
-6.499 -8.419 1.904
-6.303 -9.203 2.905
-6.533 -7.995 1.471
-6.533 -7.994 1.470
-6.533 -7.994 1.470
-6.739 -9.060 2.316
-6.895 -8.353 1.468
-5.785 -8.406 2.620
-7.008 -8.248 1.251
-6.254 -8.158 1.918
-6.261 -8.445 2.186
-6.861 -8.518 1.655
-7.032 -8.246 1.224
-7.033 -8.251 1.227
-6.242 -8.427 2.188
-5.969 -7.895 1.940
-5.738 -8.663 2.939
-6.512 -8.471 1.947
-6.254 -8.158 1.917
-5.783 -6.665 0.897
-6.238 -8.480 2.247
-6.877 -8.519 1.638
-6.267 -7.811 1.560
-6.419 -8.454 2.047
-6.739 -9.061 2.317
-6.491 -7.992 1.509
-6.366 -8.692 2.334
-6.145 -7.997 1.858
-7.737 -8.989 1.261
-6.719 -9.053 2.330
-6.719 -9.054 2.330
-5.930 -7.417 1.486
-6.749 -8.243 1.503
-6.222 -8.196 1.986
-6.052 -7.779 1.739
-5.935 -8.145 2.210
-6.214 -7.605 1.405
-6.060 -7.745 1.694
-7.602 -8.551 0.958
-7.904 -8.823 0.930
-6.210 -7.859 1.657
-7.602 -8.551 0.957
-6.213 -7.605 1.406
-5.670 -7.389 1.729
-7.602 -8.551 0.958
-6.693 -8.250 1.565
-7.813 -8.800 0.992
-7.905 -8.822 0.929
-6.059 -7.745 1.695
-6.021 -7.736 1.724
-5.935 -8.145 2.210
-6.419 -6.767 0.358
-7.602 -8.553 0.960
-7.796 -8.933 1.145
-6.299 -8.034 1.753
-6.204 -7.860 1.664
-7.265 -8.696 1.446
-7.765 -8.937 1.181
-6.353 -7.954 1.617
-5.528 -7.717 2.196
-5.566 -7.846 2.273
-6.758 -7.513 0.772
-6.299 -8.034 1.753
-7.236 -8.685 1.464
-4.955 -5.965 1.027
-7.740 -8.938 1.208
-7.794 -8.933 1.146
-7.744 -8.936 1.201
-7.741 -8.848 1.120
-6.484 -7.994 1.518
-6.204 -7.860 1.664
-6.299 -8.034 1.752
-5.902 -8.079 2.189
-6.694 -8.248 1.563
-6.186 -8.195 2.021
-6.572 -7.500 0.944
-6.756 -7.515 0.775
-7.028 -8.121 1.108
-5.875 -8.101 2.231
-5.864 -7.709 1.864
-7.039 -8.399 1.373
-7.052 -8.152 1.115
-6.106 -7.854 1.761
-5.645 -7.497 1.859
-7.741 -8.848 1.121
-7.597 -8.722 1.137
-6.475 -7.994 1.527
-5.965 -7.893 1.942
-6.071 -7.745 1.684
-6.882 -7.285 0.418
-6.067 -7.436 1.379
-5.400 -6.971 1.576
-6.058 -8.213 2.167
-6.576 -7.499 0.940
-6.472 -7.997 1.534
-6.788 -7.267 0.494
-7.794 -8.933 1.147
-6.058 -8.213 2.167
-6.474 -7.995 1.527
-6.474 -7.995 1.527
-6.788 -7.267 0.494
-5.529 -7.713 2.191
-5.815 -7.771 1.967
-6.115 -7.925 1.826
-5.529 -7.715 2.193
-5.696 -7.958 2.277
-6.299 -8.034 1.752
-5.965 -7.894 1.942
-6.897 -7.502 0.623
-7.221 -7.979 0.772
-6.762 -7.514 0.769
-6.272 -7.846 1.590
-6.068 -7.436 1.377
-7.672 -8.315 0.658
-6.308 -7.485 1.185
-5.936 -8.144 2.209
-6.152 -7.371 1.231
-7.764 -8.937 1.182
-5.335 -6.954 1.624
-5.335 -6.954 1.624
-5.572 -7.846 2.266
-7.738 -8.922 1.186
-6.287 -8.004 1.733
-6.852 -8.109 1.248
-6.354 -7.431 1.090
-6.068 -7.435 1.377
-5.805 -8.214 2.420
-6.300 -8.034 1.752
-6.353 -7.439 1.098
-7.764 -8.937 1.182
-5.717 -7.780 2.077
-5.807 -8.097 2.295
-6.052 -7.742 1.699
-6.217 -7.859 1.652
-6.710 -7.880 1.182
-6.357 -6.790 0.444
-7.813 -9.305 1.502
-6.992 -8.651 1.669
-5.909 -7.853 1.956
-5.914 -8.196 2.298
-5.844 -8.452 2.611
-7.558 -8.672 1.125
-4.923 -5.945 1.039
-6.978 -8.125 1.162
-7.867 -9.348 1.492
-5.882 -7.851 1.981
-6.068 -7.436 1.378
-4.778 -5.739 0.975
-6.053 -7.741 1.696
-6.213 -7.607 1.408
-6.088 -8.147 2.073
-6.068 -7.436 1.378
-5.937 -8.145 2.208
-5.907 -7.851 1.957
-6.213 -7.608 1.409
-6.786 -7.267 0.495
-7.376 -8.577 1.212
-6.690 -8.250 1.569
-7.741 -8.848 1.121
-5.883 -7.851 1.981
-6.224 -7.600 1.391
-5.899 -8.080 2.195
-7.682 -8.962 1.286
-7.794 -8.933 1.146
-5.740 -8.174 2.435
-7.741 -8.848 1.121
-7.102 -8.563 1.475
-7.732 -8.953 1.229
-5.572 -7.847 2.267
-5.880 -7.851 1.982
-7.225 -7.981 0.770
-6.474 -7.995 1.528
-7.741 -8.848 1.121
-6.185 -7.863 1.687
-7.243 -8.001 0.772
-7.703 -8.954 1.259
-7.591 -8.692 1.112
-6.976 -8.128 1.167
-5.859 -7.716 1.876
-6.185 -7.863 1.687
-6.500 -7.245 0.759
-6.153 -7.368 1.226
-6.106 -7.857 1.764
-5.931 -6.771 0.850
-6.880 -7.284 0.419
-6.285 -8.002 1.733
-7.886 -8.940 1.061
-6.153 -7.332 1.191
-7.243 -8.001 0.773
-7.741 -8.846 1.119
-5.907 -7.852 1.957
-7.867 -9.348 1.492
-6.474 -7.995 1.529
-6.355 -7.431 1.090
-5.718 -7.780 2.077
-6.153 -7.374 1.232
-4.778 -5.739 0.976
-7.794 -8.933 1.146
-7.031 -8.115 1.099
-5.573 -7.847 2.267
-6.979 -8.125 1.162
-6.473 -7.995 1.529
-8.071 -7.842 -0.223
-8.071 -7.842 -0.223
-7.890 -8.032 0.151
-8.389 -7.615 -0.763
-7.731 -8.009 0.281
-8.572 -7.863 -0.706
-8.553 -7.871 -0.679
-7.449 -6.684 -0.763
-5.306 -7.511 2.207
-7.450 -6.683 -0.765
-4.409 -6.504 2.075
-4.741 -6.591 1.862
-7.450 -6.683 -0.765
-7.383 -6.661 -0.720
-8.531 -7.878 -0.650
-7.728 -8.008 0.282
-4.515 -6.660 2.159
-8.477 -8.071 -0.397
-8.288 -7.430 -0.903
-4.823 -6.861 2.048
-4.513 -6.716 2.217
-4.863 -6.915 2.051
-7.716 -8.008 0.294
-8.548 -7.873 -0.672
-5.228 -7.422 2.194
-4.722 -6.518 1.805
-5.251 -7.427 2.176
-4.845 -6.566 1.731
-8.405 -7.699 -0.696
-7.383 -6.661 -0.720
-7.451 -6.683 -0.767
-7.730 -8.007 0.280
-4.741 -6.591 1.861
-4.839 -6.911 2.069
-4.798 -6.997 2.205
-4.845 -6.566 1.731
-4.741 -6.591 1.861
-7.903 -11.124 3.211
-4.849 -6.619 1.783
-7.729 -8.008 0.282
-4.843 -6.903 2.058
-4.722 -6.517 1.803
-4.833 -6.626 1.806
-6.765 -8.998 2.232
-7.442 -7.919 0.480
-4.843 -6.566 1.733
-4.720 -6.517 1.805
-4.812 -6.857 2.055
-5.385 -8.452 3.079
-4.611 -5.902 1.300
-4.812 -6.858 2.056
-7.888 -11.128 3.229
-4.717 -6.517 1.808
-4.717 -6.517 1.808
-7.434 -6.723 -0.710
-7.423 -6.717 -0.705
-4.717 -6.517 1.808
-6.595 -9.014 2.418
-4.188 -6.252 2.080
-6.133 -7.171 1.048
-4.213 -6.129 1.930
-6.594 -9.014 2.418
-7.888 -11.127 3.229
-4.735 -6.591 1.867
-4.687 -6.524 1.851
-6.765 -8.997 2.232
-4.171 -6.004 1.846
-4.451 -5.928 1.491
-4.499 -6.732 2.247
-7.465 -7.033 -0.421
-4.735 -6.591 1.868
-4.735 -6.591 1.867
-4.738 -6.841 2.114
-6.123 -7.155 1.043
-6.765 -8.998 2.232
-4.817 -6.861 2.054
-4.735 -6.591 1.867
-7.484 -11.113 3.620
-5.035 -7.359 2.330
-4.817 -6.861 2.054
-9.457 -8.821 -0.656
-7.062 -7.909 0.843
-7.528 -9.032 1.498
-4.812 -7.005 2.200
-4.735 -6.591 1.868
-7.486 -11.134 3.638
-6.150 -7.185 1.046
-4.837 -6.905 2.067
-7.434 -8.998 1.557
-4.217 -6.311 2.106
-4.717 -6.517 1.808
-4.826 -6.059 1.249
-4.840 -6.566 1.735
-4.216 -6.311 2.106
-4.266 -6.296 2.045
-4.019 -5.639 1.636
-6.764 -8.997 2.233
-7.431 -8.996 1.558
-4.817 -6.861 2.054
-4.840 -6.566 1.735
-7.531 -9.031 1.494
-4.352 -6.208 1.871
-5.253 -8.190 2.935
-4.644 -6.551 1.921
-8.383 -7.604 -0.770
-6.764 -9.004 2.239
-4.817 -6.861 2.054
-7.446 -6.731 -0.713
-3.540 -6.037 2.511
-5.862 -10.371 4.517
-7.891 -11.128 3.227
-7.532 -10.200 2.679
-4.019 -5.638 1.636
-6.764 -8.997 2.232
-7.446 -6.731 -0.713
-4.717 -6.517 1.808
-4.812 -6.857 2.055
-7.891 -11.128 3.227
-4.735 -6.591 1.868
-6.764 -8.997 2.232
-4.710 -6.647 1.952
-4.744 -6.609 1.876
-4.735 -6.524 1.802
-7.431 -8.997 1.558
-5.633 -7.788 2.146
-5.088 -7.418 2.317
-5.143 -8.217 3.070
-5.864 -7.380 1.515
-6.340 -8.394 2.066
-5.143 -8.217 3.070
-6.340 -8.394 2.066
-6.373 -8.390 2.030
-6.373 -8.391 2.030
-5.918 -7.703 1.792
-5.918 -7.698 1.787
-6.373 -8.391 2.030
-5.864 -7.336 1.472
-5.864 -7.347 1.482
-5.125 -7.427 2.288
-6.373 -8.391 2.030
-5.459 -7.799 2.331
-5.918 -7.708 1.797
-5.459 -7.799 2.331
-5.143 -8.217 3.070
-5.459 -7.799 2.331
-5.459 -7.799 2.331
-6.893 -8.354 1.472
-7.543 -8.946 1.412
-6.892 -8.350 1.469
-6.889 -8.346 1.468
-6.892 -8.352 1.471
-6.892 -8.349 1.467
-5.975 -7.764 1.797
-5.898 -7.470 1.571
-6.890 -8.349 1.469
-6.781 -8.188 1.422
-7.543 -8.946 1.412
-7.543 -8.946 1.412
-7.570 -8.951 1.389
-6.294 -9.009 2.726
-6.781 -8.188 1.422
-7.570 -8.947 1.385
-6.894 -8.355 1.471
-6.812 -8.200 1.404
-7.570 -8.947 1.385
-7.570 -8.947 1.385
-7.570 -8.947 1.385
-6.781 -8.188 1.422
-7.543 -8.946 1.412
-5.975 -7.763 1.796
-6.892 -8.351 1.469
-7.570 -8.947 1.385
-6.916 -8.358 1.453
-7.570 -8.947 1.385
-5.975 -7.773 1.806
-5.803 -8.221 2.434
-5.434 -7.828 2.385
-6.269 -8.492 2.235