-8.176 -7.060 -1.104
-5.767 -6.573 0.820
-7.306 -7.045 -0.248
-7.076 -7.097 0.033
-6.755 -6.971 0.227
-7.076 -7.097 0.033
-7.076 -7.097 0.033
-7.076 -7.097 0.033
-7.015 -6.882 -0.123
-7.076 -7.097 0.033
-6.755 -6.971 0.226
-7.079 -6.970 -0.096
-7.079 -6.970 -0.096
-7.076 -7.097 0.033
-7.076 -7.097 0.033
-7.306 -7.045 -0.248
-7.306 -7.045 -0.248
-6.755 -6.971 0.226
-7.306 -7.045 -0.248
-7.306 -7.045 -0.248
-8.155 -7.079 -1.063
-8.165 -7.077 -1.076
-8.165 -7.077 -1.076
-8.165 -7.077 -1.076
-8.157 -7.078 -1.067
-8.157 -7.078 -1.067
-8.164 -7.077 -1.075
-6.035 -6.552 0.532
-7.306 -7.045 -0.248
-7.077 -6.972 -0.093
-6.715 -6.692 -0.009
-7.306 -7.045 -0.248
-5.794 -6.589 0.809
-7.306 -7.045 -0.248
-8.164 -7.077 -1.075
-5.794 -6.589 0.809
-6.091 -6.549 0.473
-6.091 -6.549 0.473
-6.091 -6.549 0.473
-6.091 -6.549 0.473
-6.539 -7.053 0.524
-7.017 -7.453 0.446
-5.794 -6.589 0.809
-6.755 -6.971 0.227
-5.794 -6.589 0.810
-5.794 -6.589 0.810
-8.164 -7.077 -1.076
-5.794 -6.589 0.809
-5.794 -6.589 0.809
-7.477 -6.928 -0.535
-5.793 -6.590 0.811
-5.793 -6.590 0.811
-6.091 -6.549 0.473
-7.107 -7.055 -0.039
-5.794 -6.589 0.810
-7.306 -7.045 -0.247
-7.076 -7.097 0.034
-7.306 -7.045 -0.247
-5.794 -6.589 0.810
-7.076 -7.097 0.034
-7.306 -7.045 -0.248
-7.076 -7.097 0.034
-5.794 -6.589 0.810
-6.070 -7.335 1.279
-7.306 -7.045 -0.247
-6.091 -6.549 0.473
-6.091 -6.549 0.473
-7.072 -6.982 -0.078
-8.164 -7.077 -1.075
-6.260 -7.363 1.117
-5.794 -6.589 0.810
-6.035 -6.552 0.532
-5.794 -6.589 0.810
-8.164 -7.077 -1.075
-6.070 -7.335 1.279
-6.754 -6.971 0.228
-5.615 -6.763 1.161
-5.615 -6.763 1.161
-6.890 -7.438 0.557
-6.070 -7.335 1.279
-7.306 -7.045 -0.247
-7.076 -7.097 0.034
-6.260 -7.363 1.117
-6.091 -6.549 0.473
-4.941 -5.836 0.910
-6.034 -6.552 0.532
-5.794 -6.589 0.810
-6.091 -6.549 0.473
-5.767 -6.573 0.821
-6.092 -6.549 0.472
-7.029 -7.421 0.402
-6.070 -7.335 1.279
-5.573 -6.759 1.202
-6.034 -6.552 0.533
-6.034 -6.552 0.533
-6.749 -6.971 0.233
-6.888 -7.445 0.566
-5.791 -6.590 0.813
-5.269 -6.038 0.785
-7.009 -7.450 0.452
-6.749 -6.971 0.233
-5.791 -6.590 0.813
-6.091 -6.549 0.473
-5.171 -6.304 1.148
-5.954 -6.714 0.767
-8.160 -7.077 -1.071
-6.035 -6.552 0.532
-5.502 -6.020 0.534
-6.801 -6.963 0.176
-5.792 -6.590 0.813
-5.768 -6.602 0.849
-8.154 -7.079 -1.062
-5.764 -6.574 0.824
-6.092 -6.549 0.472
-6.748 -6.971 0.233
-5.767 -6.602 0.850
-5.792 -6.590 0.813
-5.612 -6.764 1.165
-6.748 -6.971 0.233
-7.182 -7.362 0.187
-6.035 -6.552 0.533
-5.093 -6.978 1.901
-7.036 -7.112 0.089
-6.499 -7.494 1.006
-5.501 -6.020 0.534
-5.501 -6.020 0.534
-5.501 -6.020 0.534
-5.496 -6.435 0.954
-7.073 -7.096 0.036
-5.612 -6.764 1.165
-7.073 -7.096 0.036
-5.556 -6.751 1.208
-7.036 -7.112 0.089
-5.951 -6.717 0.773
-7.509 -6.932 -0.562
-6.034 -6.552 0.533
-5.373 -6.821 1.462
-7.477 -6.928 -0.535
-6.034 -6.552 0.533
-7.074 -7.096 0.035
-7.074 -7.096 0.035
-5.091 -6.068 0.992
-7.010 -7.452 0.452
-7.509 -6.932 -0.563
-6.035 -6.552 0.532
-6.034 -6.552 0.533
-6.457 -7.513 1.067
-6.074 -7.313 1.253
-7.477 -6.928 -0.535
-5.256 -6.036 0.795
-5.501 -6.020 0.534
-7.074 -7.096 0.035
-6.034 -6.552 0.533
-6.257 -7.363 1.120
-6.257 -7.363 1.120
-7.066 -7.069 0.017
-5.173 -6.431 1.272
-5.676 -7.088 1.426
-6.092 -6.549 0.472
-7.030 -7.418 0.399
-6.503 -7.495 1.003
-5.796 -6.589 0.808
-5.754 -6.581 0.842
-7.011 -7.453 0.452
-5.519 -6.379 0.875
-5.203 -5.995 0.803
-6.889 -7.448 0.569
-6.889 -7.448 0.569
-7.305 -7.045 -0.247
-8.154 -7.079 -1.062
-5.794 -6.589 0.809
-7.197 -7.737 0.550
-7.305 -7.046 -0.247
-6.036 -6.552 0.531
-7.039 -7.112 0.087
-5.769 -6.601 0.846
-5.794 -6.589 0.809
-7.305 -7.046 -0.247
-5.794 -6.588 0.809
-6.368 -7.376 1.021
-7.076 -7.097 0.034
-7.015 -7.453 0.449
-6.036 -6.552 0.531
-5.954 -6.713 0.766
-7.010 -7.453 0.454
-5.520 -6.544 1.038
-6.035 -6.552 0.532
-7.305 -7.045 -0.247
-7.075 -7.097 0.034
-5.498 -6.434 0.952
-7.066 -7.063 0.010
-5.739 -7.092 1.368
-6.413 -6.737 0.339
-6.035 -6.552 0.531
-5.419 -6.569 1.165
-5.080 -6.068 1.002
-4.471 -5.904 1.448
-5.770 -6.600 0.845
-6.035 -6.552 0.531
-5.271 -6.038 0.782
-7.156 -7.382 0.234
-5.502 -6.020 0.533
-5.519 -6.378 0.873
-7.014 -7.453 0.450
-6.092 -6.549 0.472
-6.686 -6.739 0.069
-7.477 -6.928 -0.535
-5.938 -6.595 0.672
-7.066 -7.070 0.017
-5.242 -6.201 0.973
-6.088 -6.548 0.475
-7.014 -7.453 0.450
-5.701 -6.240 0.553
-5.411 -6.566 1.170
-6.684 -6.739 0.070
-5.334 -6.382 1.062
-5.723 -7.103 1.395
-6.035 -6.552 0.531
-6.691 -6.742 0.066
-5.476 -6.436 0.976
-7.035 -7.067 0.045
-5.509 -6.020 0.526
-5.529 -6.365 0.850
-6.683 -6.739 0.071
-6.883 -7.435 0.561
-6.412 -6.737 0.339
-5.529 -6.382 0.867
-5.508 -6.435 0.942
-5.202 -5.995 0.804
-6.683 -6.739 0.071
-4.713 -5.544 0.845
-7.267 -7.065 -0.189
-5.747 -7.098 1.366
-7.017 -7.119 0.115
-5.525 -6.324 0.814
-7.014 -7.467 0.464
-7.014 -7.468 0.465
-6.683 -6.739 0.071
-6.042 -6.552 0.525
-7.017 -7.119 0.115
-5.529 -6.382 0.867
-6.683 -6.739 0.071
-6.042 -6.552 0.525
-5.529 -6.382 0.867
-6.413 -6.737 0.339
-6.683 -6.739 0.071
-6.683 -6.739 0.071
-5.508 -6.435 0.942
-5.777 -6.603 0.840
-5.623 -7.141 1.533
-5.508 -6.435 0.942
-5.522 -6.544 1.036
-5.174 -6.436 1.276
-5.174 -6.435 1.276
-6.042 -6.552 0.525
-6.975 -7.253 0.290
-5.340 -6.381 1.056
-5.243 -6.251 1.023
-5.342 -6.380 1.053
-6.683 -6.739 0.071
-5.530 -6.382 0.866
-7.267 -7.065 -0.189
-5.082 -6.963 1.896
-6.371 -7.376 1.019
-6.776 -7.514 0.750
-5.078 -6.960 1.896
-6.080 -6.549 0.484
-7.267 -7.065 -0.190
-6.043 -6.552 0.524
-5.598 -6.808 1.224
-7.197 -7.736 0.550
-5.126 -6.456 1.345
-5.177 -6.302 1.140
-6.683 -6.739 0.070
-6.607 -6.464 -0.128
-6.413 -6.737 0.338
-7.011 -6.883 -0.117
-7.078 -6.973 -0.093
-5.201 -5.995 0.805
-5.249 -6.209 0.974
-6.979 -7.292 0.324
-6.977 -7.315 0.349
-5.205 -6.567 1.377
-5.583 -6.805 1.235
-6.412 -6.738 0.341
-5.240 -6.251 1.025
-6.962 -7.271 0.325
-5.583 -6.805 1.235
-6.978 -7.300 0.332
-6.035 -6.552 0.532
-6.685 -6.739 0.069
-6.482 -7.071 0.583
-7.508 -6.931 -0.562
-5.105 -5.999 0.905
-6.035 -6.552 0.532
-6.686 -6.739 0.069
-5.581 -6.803 1.236
-5.098 -5.998 0.911
-6.802 -6.962 0.174
-7.984 -7.059 -0.911
-5.558 -6.438 0.895
-5.412 -6.565 1.168
-6.712 -7.519 0.819
-6.712 -7.519 0.819
-5.155 -6.085 0.944
-6.633 -7.162 0.531
-7.065 -7.128 0.075
-7.076 -7.096 0.034
-6.754 -6.971 0.227
-6.894 -7.446 0.561
-6.091 -6.549 0.473
-5.508 -6.317 0.823
-5.789 -6.970 1.195
-5.498 -6.434 0.952
-7.067 -7.074 0.020
-6.684 -6.739 0.070
-5.326 -6.385 1.074
-7.039 -7.113 0.086
-5.794 -6.589 0.810
-7.039 -7.113 0.086
-5.502 -6.020 0.533
-5.174 -6.434 1.274
-7.076 -7.097 0.034
-6.411 -6.738 0.341
-5.202 -5.995 0.804
-5.794 -6.589 0.810
-6.686 -6.739 0.068
-6.035 -6.552 0.532
-5.618 -7.132 1.529
-6.091 -6.549 0.472
-5.520 -6.544 1.038
-6.684 -6.739 0.070
-6.962 -7.271 0.325
-4.711 -5.545 0.848
-5.794 -6.589 0.810
-7.477 -6.929 -0.534
-5.497 -6.434 0.952
-5.497 -6.434 0.952
-6.686 -6.739 0.068
-5.519 -6.379 0.874
-5.204 -5.994 0.802
-5.519 -6.379 0.874
-6.804 -6.963 0.173
-5.769 -6.601 0.847
-5.320 -6.387 1.082
-6.961 -7.272 0.326
-6.961 -7.272 0.326
-5.502 -6.020 0.533
-5.497 -6.434 0.952
-6.684 -6.739 0.070
-5.241 -6.251 1.025
-5.241 -6.251 1.025
-7.013 -7.452 0.450
-5.497 -6.435 0.952
-6.680 -7.103 0.436
-6.035 -6.552 0.532
-6.256 -7.363 1.121
-6.804 -6.963 0.173
-6.696 -6.742 0.061
-5.559 -6.438 0.894
-7.067 -7.070 0.016
-6.414 -6.737 0.338
-7.067 -7.060 0.007
-6.260 -7.362 1.117
-5.491 -5.741 0.261
-7.101 -7.067 -0.021
-6.035 -6.552 0.532
-6.368 -7.376 1.022
-6.035 -6.552 0.532
-4.769 -5.696 0.942
-6.070 -7.335 1.278
-5.340 -6.382 1.057
-6.081 -6.140 0.073
-7.170 -7.373 0.211
-5.794 -6.589 0.809
-5.422 -6.570 1.163
-5.717 -6.990 1.287
-6.030 -6.633 0.617
-5.497 -6.434 0.952
-5.325 -6.385 1.075
-5.325 -6.385 1.075
-7.077 -6.972 -0.093
-6.961 -7.271 0.325
-6.092 -6.549 0.472
-6.368 -7.376 1.021
-5.240 -6.251 1.025
-5.174 -6.434 1.274
-5.241 -6.200 0.974
-7.705 -7.329 -0.362
-6.035 -6.552 0.532
-6.035 -6.552 0.532
-5.617 -7.132 1.530
-4.768 -5.696 0.942
-7.037 -7.112 0.088
-5.205 -6.191 0.999
-7.305 -7.045 -0.247
-5.201 -5.995 0.805
-5.848 -6.974 1.140
-6.886 -7.450 0.573
-5.497 -6.434 0.952
-6.368 -7.376 1.022
-8.154 -7.081 -1.061
-5.519 -6.379 0.875
-5.051 -5.824 0.788
-5.241 -6.251 1.025
-6.411 -6.738 0.341
-6.368 -7.376 1.021
-6.259 -7.362 1.117
-5.519 -6.376 0.871
-5.099 -5.998 0.910
-5.513 -6.318 0.819
-5.206 -6.190 0.998
-6.259 -7.362 1.117
-6.687 -6.739 0.067
-5.770 -6.601 0.845
-6.035 -6.552 0.532
-8.154 -7.079 -1.062
-5.794 -6.589 0.809
-6.608 -7.224 0.631
-6.259 -7.362 1.117
-5.329 -6.384 1.069
-5.701 -6.240 0.554
-5.502 -6.020 0.533
-7.076 -7.097 0.034
-7.509 -6.932 -0.563
-6.804 -6.963 0.172
-7.197 -7.739 0.552
-7.012 -7.452 0.450
-5.681 -7.085 1.419
-7.075 -7.097 0.035
-5.320 -6.371 1.066
-5.516 -6.344 0.842
-4.713 -5.544 0.845
-6.730 -7.154 0.416
-5.203 -6.479 1.291
-7.197 -7.736 0.550
-8.105 -7.082 -1.011
-5.272 -6.575 1.318
-5.400 -6.282 0.888
-5.321 -6.372 1.065
-4.710 -5.544 0.848
-6.401 -6.746 0.359
-7.072 -6.796 -0.264
-6.026 -6.795 0.784
-6.012 -6.555 0.559
-5.765 -6.601 0.850
-6.012 -6.555 0.559
-6.460 -7.499 1.051
-6.013 -6.556 0.558
-6.990 -7.455 0.476
-5.140 -6.457 1.332
-5.218 -5.996 0.789
-5.673 -7.073 1.414
-5.532 -6.454 0.936
-4.834 -6.134 1.314
-6.314 -7.368 1.067
-5.763 -6.602 0.853
-6.697 -7.056 0.371
-6.020 -6.552 0.547
-6.457 -7.501 1.056
-6.987 -7.456 0.479
-5.673 -7.073 1.415
-5.762 -6.602 0.854
-6.606 -7.225 0.634
-6.685 -6.740 0.070
-6.685 -6.740 0.070
-5.596 -7.132 1.551
-4.691 -5.543 0.866
-6.078 -7.350 1.286
-5.497 -6.348 0.865
-5.497 -6.349 0.866
-6.718 -6.983 0.276
-5.268 -6.036 0.782
-5.480 -6.435 0.970
-5.498 -6.376 0.892
-6.960 -7.272 0.327
-6.880 -7.437 0.566
-8.092 -7.596 -0.485
-5.298 -6.371 1.088
-5.239 -6.199 0.975
-6.372 -7.389 1.031
-5.752 -7.110 1.372
-5.147 -6.089 0.956
-5.290 -6.374 1.098
-7.052 -7.097 0.057
-7.079 -7.082 0.016
-5.299 -6.372 1.087
-5.531 -6.454 0.936
-5.146 -6.427 1.296
-5.316 -6.382 1.080
-5.494 -6.445 0.965
-5.498 -6.385 0.901
-4.893 -5.729 0.850
-6.607 -7.225 0.633
-5.667 -7.091 1.439
-8.055 -7.460 -0.582
-5.675 -7.075 1.414
-5.580 -6.774 1.207
-5.084 -6.218 1.149
-6.502 -7.503 1.011
-6.502 -7.503 1.011
-8.091 -7.596 -0.484
-5.149 -6.310 1.176
-6.960 -7.272 0.327
-5.493 -6.021 0.543
-4.892 -5.729 0.851
-5.268 -6.036 0.782
-5.268 -6.036 0.782
-5.248 -6.036 0.803
-5.210 -6.570 1.375
-5.299 -6.371 1.087
-6.882 -7.436 0.563
-5.219 -5.995 0.787
-5.237 -6.199 0.976
-6.607 -7.224 0.632
-5.301 -6.371 1.085
-5.498 -6.376 0.892
-6.315 -7.368 1.066
-6.839 -6.766 -0.060
-4.341 -5.048 0.720
-6.712 -7.049 0.349
-5.626 -7.101 1.490
-5.083 -6.068 1.000
-5.083 -6.068 1.000
-6.319 -7.367 1.062
-5.485 -5.740 0.265
-5.507 -6.367 0.874
-6.724 -6.985 0.271
-6.501 -7.487 0.997
-6.888 -7.438 0.559
-5.724 -6.592 0.882
-5.491 -6.017 0.542
-5.953 -7.316 1.377
-5.254 -6.200 0.961
-6.386 -7.387 1.015
-5.508 -6.377 0.884
-6.519 -7.495 0.988
-5.266 -6.032 0.781
-5.246 -6.198 0.966
-5.309 -6.375 1.081
-4.594 -5.728 1.148
-5.116 -6.458 1.357
-6.615 -7.223 0.623
-6.615 -7.223 0.623
-6.615 -7.223 0.623
-5.114 -6.002 0.899
-5.115 -6.002 0.898
-4.738 -5.696 0.972
-4.834 -6.132 1.313
-6.519 -7.495 0.988
-5.090 -6.068 0.993
-5.241 -6.033 0.807
-5.661 -7.074 1.428
-8.055 -7.460 -0.582
-5.540 -6.455 0.929
-5.938 -7.326 1.401
-6.320 -7.367 1.062
-5.212 -6.571 1.374
-6.103 -7.295 1.205
-8.174 -7.071 -1.090
-6.015 -6.553 0.553
-5.124 -6.442 1.333
-5.106 -6.003 0.908
-6.995 -7.453 0.469
-6.967 -7.269 0.318
-5.639 -6.949 1.324
-5.219 -5.995 0.787
-6.502 -7.476 0.985
-6.616 -7.222 0.621
-7.068 -7.098 0.043
-5.089 -6.069 0.994
-5.266 -6.032 0.782
-5.266 -6.032 0.782
-5.266 -6.032 0.782
-5.245 -6.033 0.803
-6.903 -7.445 0.551
-5.089 -6.068 0.994
-5.508 -6.391 0.897
-6.521 -7.495 0.984
-6.904 -7.444 0.549
-5.309 -6.375 1.081
-8.137 -7.712 -0.413
-8.137 -7.712 -0.413
-8.137 -7.712 -0.413
-7.334 -6.975 -0.345
-7.581 -7.539 -0.029
-7.318 -6.962 -0.342
-8.136 -7.712 -0.412
-8.115 -7.594 -0.509
-7.318 -6.962 -0.342
-8.089 -7.596 -0.481
-7.615 -7.537 -0.065
-8.136 -7.712 -0.412
-7.581 -7.539 -0.029
-7.317 -6.962 -0.342
-7.615 -7.537 -0.065
-8.038 -7.461 -0.564
-8.116 -7.593 -0.510
-8.108 -7.462 -0.633
-7.317 -6.962 -0.342
-8.109 -7.442 -0.655
-7.616 -7.537 -0.065
-8.135 -7.712 -0.412
-7.616 -7.537 -0.065
-7.616 -7.537 -0.065
-8.135 -7.712 -0.412
-8.108 -7.462 -0.633
-8.116 -7.593 -0.510
-6.597 -6.966 0.383
-8.108 -7.462 -0.633
-8.148 -7.712 -0.423
-8.033 -7.462 -0.558
-8.038 -7.461 -0.564
-7.616 -7.537 -0.066
-7.616 -7.537 -0.066
-8.135 -7.712 -0.412
-7.616 -7.537 -0.066
-8.109 -7.462 -0.633
-8.038 -7.461 -0.564
-7.774 -7.350 -0.410
-8.091 -7.384 -0.694
-7.774 -7.351 -0.409
-8.052 -7.461 -0.578
-8.038 -7.461 -0.564
-8.135 -7.712 -0.411
-7.616 -7.537 -0.066
-8.038 -7.461 -0.564
-8.147 -7.712 -0.423
-8.110 -7.442 -0.655
-8.038 -7.461 -0.564
-8.135 -7.712 -0.411
-8.038 -7.461 -0.564
-7.118 -6.740 -0.363
-8.095 -7.462 -0.620
-8.038 -7.461 -0.564
-8.135 -7.712 -0.411
-8.109 -7.462 -0.633
-8.147 -7.712 -0.423
-8.135 -7.712 -0.412
-8.135 -7.712 -0.411
-6.596 -6.966 0.384
-8.110 -7.442 -0.655
-7.118 -6.740 -0.363
-7.819 -7.407 -0.398
-8.116 -7.593 -0.511
-8.135 -7.712 -0.411
-6.597 -6.965 0.383
-7.118 -6.740 -0.363
-8.135 -7.712 -0.411
-7.616 -7.537 -0.066
-8.110 -7.442 -0.655
-7.582 -7.539 -0.029
-7.129 -6.742 -0.372
-7.129 -6.742 -0.373
-8.082 -7.383 -0.686
-8.080 -7.384 -0.684
-7.330 -6.980 -0.337
-6.433 -7.147 0.727
-7.121 -6.745 -0.361
-8.100 -7.442 -0.645
-7.121 -6.745 -0.361
-7.330 -6.979 -0.338
-7.482 -7.152 -0.316
-8.144 -7.714 -0.419
-7.121 -6.745 -0.361
-7.110 -6.743 -0.352
-8.100 -7.442 -0.645
-8.132 -7.713 -0.407
-8.145 -7.721 -0.412
-8.144 -7.714 -0.419
-7.110 -6.743 -0.352
-8.144 -7.714 -0.419
-8.132 -7.713 -0.407
-6.845 -6.753 -0.078
-7.121 -6.745 -0.361
-8.100 -7.442 -0.645
-7.110 -6.743 -0.352
-8.106 -7.589 -0.504
-8.132 -7.713 -0.407
-7.482 -7.152 -0.316
-8.100 -7.442 -0.645
-7.482 -7.152 -0.316
-7.110 -6.743 -0.352
-6.845 -6.753 -0.078
-8.100 -7.442 -0.645
-8.094 -7.592 -0.489
-7.459 -7.115 -0.330
-5.827 -6.375 0.562
-7.459 -7.115 -0.330
-8.080 -7.383 -0.684
-7.612 -7.540 -0.059
-8.106 -7.593 -0.501
-7.612 -7.540 -0.059
-7.110 -6.743 -0.352
-7.121 -6.745 -0.361
-8.100 -7.442 -0.645
-7.612 -7.540 -0.059
-8.100 -7.442 -0.645
-8.144 -7.714 -0.419
-6.441 -6.888 0.462
-5.998 -6.797 0.813
-7.579 -7.542 -0.023
-7.579 -7.542 -0.023
-8.132 -7.713 -0.407
-7.482 -7.152 -0.316
-8.144 -7.714 -0.419
-6.845 -6.752 -0.078
-7.812 -7.405 -0.393
-8.144 -7.714 -0.419
-6.018 -6.219 0.216
-8.100 -7.463 -0.624
-7.459 -7.115 -0.330
-6.803 -7.410 0.621
-7.579 -7.542 -0.023
-8.144 -7.714 -0.419
-6.025 -6.797 0.787
-8.080 -7.596 -0.472
-7.579 -7.542 -0.024
-6.025 -6.391 0.381
-8.133 -7.713 -0.408
-8.100 -7.442 -0.646
-7.579 -7.542 -0.023
-5.056 -6.248 1.207
-7.122 -6.745 -0.362
-7.122 -6.745 -0.362
-7.111 -6.743 -0.353
-8.100 -7.442 -0.646
-7.812 -7.405 -0.393
-8.133 -7.713 -0.408
-7.314 -6.965 -0.335
-6.025 -6.797 0.787
-7.579 -7.542 -0.023
-8.133 -7.713 -0.408
-7.111 -6.743 -0.353
-6.599 -6.966 0.381
-7.613 -7.540 -0.060
-8.100 -7.442 -0.646
-7.314 -7.088 -0.214
-8.133 -7.713 -0.408
-8.145 -7.714 -0.420
-8.133 -7.713 -0.408
-6.844 -6.752 -0.078
-8.106 -7.594 -0.500
-8.100 -7.442 -0.646
-7.111 -6.743 -0.353
-8.106 -7.594 -0.501
-8.106 -7.594 -0.500
-7.122 -6.745 -0.362
-6.235 -6.862 0.642
-5.885 -6.615 0.744
-8.109 -7.443 -0.654
-5.858 -6.324 0.479
-7.485 -7.151 -0.320
-8.051 -7.461 -0.577
-6.021 -6.796 0.790
-8.051 -7.461 -0.577
-7.584 -7.541 -0.030
-7.116 -6.741 -0.360
-6.597 -6.966 0.383
-8.051 -7.461 -0.577
-5.994 -6.796 0.817
-6.021 -6.796 0.790
-7.116 -6.741 -0.360
-8.147 -7.713 -0.422
-7.126 -6.743 -0.369
-7.126 -6.742 -0.369
-7.126 -6.743 -0.369
-5.994 -6.796 0.817
-7.126 -6.742 -0.369
-7.584 -7.541 -0.030
-8.109 -7.443 -0.654
-8.051 -7.462 -0.576
-7.116 -6.741 -0.360
-7.584 -7.541 -0.029
-7.618 -7.539 -0.066
-7.584 -7.541 -0.030
-6.849 -6.752 -0.084
-7.618 -7.539 -0.066
-8.051 -7.461 -0.577
-7.505 -7.138 -0.353
-6.743 -6.691 -0.039
-5.997 -6.187 0.204
-7.116 -6.741 -0.360
-7.126 -6.743 -0.369
-6.597 -6.966 0.383
-6.255 -6.848 0.607
-7.116 -6.741 -0.360
-6.849 -6.752 -0.084
-7.116 -6.741 -0.360
-7.584 -7.541 -0.030
-7.116 -6.741 -0.360
-6.021 -6.796 0.790
-7.116 -6.741 -0.360
-5.994 -6.796 0.817
-7.116 -6.741 -0.360
-7.485 -7.151 -0.320
-7.485 -7.151 -0.320
-7.584 -7.541 -0.030
-6.849 -6.752 -0.084
-8.114 -7.593 -0.508
-6.021 -6.796 0.790
-6.849 -6.752 -0.084
-6.849 -6.752 -0.084
-6.021 -6.796 0.790
-6.837 -6.765 -0.058
-7.116 -6.741 -0.360
-7.584 -7.541 -0.030
-6.444 -6.887 0.457
-6.444 -6.887 0.457
-6.837 -6.765 -0.058
-7.116 -6.741 -0.360
-8.135 -7.713 -0.410
-8.088 -7.596 -0.480
-7.127 -6.743 -0.369
-8.088 -7.596 -0.480
-6.849 -6.752 -0.084
-8.135 -7.713 -0.410
-7.116 -6.741 -0.360
-7.485 -7.151 -0.320
-8.088 -7.596 -0.480
-6.597 -6.966 0.383
-8.088 -7.596 -0.480
-8.109 -7.443 -0.654
-7.584 -7.541 -0.029
-6.391 -6.856 0.479
-6.391 -6.856 0.479
-6.391 -6.856 0.479
-7.485 -7.151 -0.320
-8.088 -7.596 -0.480
-8.109 -7.443 -0.654
-8.051 -7.462 -0.576
-7.485 -7.151 -0.320
-6.021 -6.796 0.790
-7.335 -6.978 -0.344
-6.597 -6.966 0.383
-5.942 -6.189 0.261
-6.641 -6.720 0.093
-6.837 -6.765 -0.058
-7.618 -7.539 -0.066
-7.116 -6.741 -0.360
-8.135 -7.713 -0.410
-7.116 -6.741 -0.360
-7.618 -7.539 -0.066
-6.444 -6.887 0.457
-6.597 -6.966 0.383
-8.088 -7.596 -0.480
-7.116 -6.741 -0.360
-6.849 -6.752 -0.084
-7.485 -7.151 -0.320
-7.584 -7.541 -0.030
-7.116 -6.741 -0.360
-6.837 -6.765 -0.058
-7.319 -6.964 -0.342
-7.116 -6.741 -0.360
-6.837 -6.765 -0.058
-6.251 -6.851 0.614
-8.051 -7.461 -0.577
-8.051 -7.461 -0.577
-6.849 -6.752 -0.084
-7.116 -6.741 -0.360
-6.849 -6.752 -0.084
-6.636 -6.723 0.101
-5.994 -6.796 0.817
-7.485 -7.151 -0.320
-7.116 -6.741 -0.360
-6.849 -6.752 -0.084
-7.584 -7.541 -0.030
-5.994 -6.796 0.817
-7.116 -6.741 -0.360
-8.135 -7.713 -0.410
-5.946 -6.189 0.257
-7.116 -6.741 -0.360
-8.082 -7.596 -0.474
-7.581 -7.541 -0.026
-5.998 -6.797 0.813
-6.600 -6.965 0.380
-6.111 -6.768 0.672
-7.111 -6.743 -0.353
-8.099 -7.442 -0.645
-6.845 -6.752 -0.078
-8.079 -7.596 -0.471
-5.998 -6.797 0.813
-6.960 -7.142 0.196
-7.509 -6.927 -0.568
-5.978 -6.190 0.227
-5.978 -6.190 0.227
-7.473 -7.155 -0.304
-7.311 -6.970 -0.327
-6.604 -6.735 0.144
-6.834 -6.756 -0.064
-6.381 -6.862 0.495
-6.619 -6.725 0.119
-7.577 -7.545 -0.019
-4.941 -6.300 1.372
-6.839 -6.766 -0.059
-6.145 -6.799 0.668
-6.839 -6.766 -0.059
-6.839 -6.766 -0.059
-7.620 -7.538 -0.068
-8.112 -7.443 -0.656
-7.118 -6.741 -0.362
-6.851 -6.752 -0.085
-7.620 -7.538 -0.068
-8.053 -7.461 -0.579
-7.118 -6.741 -0.363
-7.118 -6.741 -0.363
-7.620 -7.538 -0.068
-8.112 -7.443 -0.656
-6.851 -6.752 -0.085
-8.161 -7.721 -0.428
-8.112 -7.443 -0.656
-8.090 -7.596 -0.483
-8.053 -7.461 -0.579
-7.620 -7.538 -0.069
-8.135 -7.712 -0.411
-7.586 -7.541 -0.032
-8.147 -7.713 -0.423
-6.032 -6.389 0.372
-6.637 -6.723 0.100
-6.596 -6.966 0.384
-7.586 -7.541 -0.032
-7.586 -7.541 -0.032
-5.992 -6.796 0.818
-6.614 -6.969 0.370
-6.204 -6.820 0.630
-8.135 -7.712 -0.411
-5.992 -6.796 0.818
-8.091 -7.596 -0.483
-6.633 -6.726 0.107
-6.839 -6.766 -0.059
-5.992 -6.796 0.818
-6.393 -6.855 0.476
-7.586 -7.541 -0.032
-6.596 -6.966 0.384
-7.586 -7.541 -0.032
-6.839 -6.766 -0.059
-7.620 -7.538 -0.069
-8.112 -7.443 -0.656
-5.943 -6.189 0.261
-6.255 -6.849 0.609
-7.586 -7.541 -0.032
-8.147 -7.713 -0.423
-6.393 -6.855 0.476
-7.485 -7.151 -0.321
-6.889 -6.604 -0.271
-7.586 -7.541 -0.032
-8.161 -7.721 -0.428
-8.161 -7.721 -0.428
-5.999 -6.795 0.811
-5.992 -6.796 0.818
-7.586 -7.541 -0.032
-6.596 -6.966 0.384
-6.839 -6.766 -0.059
-8.110 -7.463 -0.634
-7.586 -7.541 -0.032
-8.147 -7.713 -0.423
-8.135 -7.712 -0.411
-6.650 -6.716 0.080
-6.767 -7.638 0.885
-6.650 -6.716 0.080
-7.129 -6.742 -0.372
-6.839 -6.766 -0.059
-7.586 -7.541 -0.032
-7.620 -7.538 -0.069
-8.112 -7.443 -0.656
-6.596 -6.966 0.384
-6.446 -6.886 0.455
-8.161 -7.721 -0.428
-6.596 -6.966 0.384
-5.992 -6.796 0.818
-5.992 -6.796 0.818
-5.992 -6.796 0.818
-5.115 -6.220 1.119
-6.785 -7.563 0.791
-5.115 -6.220 1.119
-8.054 -7.461 -0.580
-8.096 -7.462 -0.621
-5.992 -6.796 0.818
-8.096 -7.462 -0.621
-7.586 -7.541 -0.032
-6.596 -6.966 0.384
-8.135 -7.712 -0.411
-5.992 -6.796 0.818
-7.586 -7.541 -0.032
-6.905 -7.408 0.512
-6.839 -6.766 -0.059
-8.147 -7.713 -0.423
-5.992 -6.796 0.818
-8.135 -7.712 -0.411
-6.650 -6.716 0.080
-5.949 -6.189 0.255
-6.596 -6.966 0.384
-6.643 -6.720 0.091
-8.112 -7.443 -0.656
-7.620 -7.538 -0.069
-5.992 -6.796 0.818
-6.609 -6.727 0.132
-7.620 -7.538 -0.069
-5.932 -6.191 0.273
-8.135 -7.712 -0.411
-8.147 -7.713 -0.423
-6.839 -6.766 -0.059
-8.112 -7.443 -0.656
-7.118 -6.741 -0.362
-7.620 -7.538 -0.069
-8.110 -7.463 -0.634
-5.936 -6.190 0.269
-7.586 -7.541 -0.032
-5.992 -6.796 0.818
-8.091 -7.596 -0.483
-5.992 -6.796 0.818
-7.118 -6.741 -0.362
-6.393 -6.855 0.476
-6.596 -6.966 0.384
-6.839 -6.766 -0.059
-7.118 -6.741 -0.363
-8.116 -7.593 -0.511
-6.393 -6.855 0.476
-6.839 -6.766 -0.059
-6.596 -6.966 0.384
-5.945 -6.189 0.259
-8.091 -7.596 -0.483
-5.114 -6.220 1.120
-7.620 -7.538 -0.069
-6.596 -6.966 0.384
-5.020 -6.293 1.287
-7.118 -6.741 -0.362
-5.641 -6.103 0.475
-8.091 -7.596 -0.483
-6.633 -6.726 0.107
-6.019 -6.796 0.791
-6.393 -6.855 0.476
-6.596 -6.966 0.384
-8.091 -7.596 -0.483
-5.999 -6.795 0.811
-6.594 -6.966 0.386
-5.992 -6.796 0.818
-7.118 -6.741 -0.363
-7.118 -6.740 -0.363
-5.115 -6.220 1.119
-5.115 -6.220 1.119
-6.393 -6.855 0.476
-5.992 -6.796 0.818
-6.596 -6.966 0.384
-6.569 -7.420 0.862
-7.586 -7.541 -0.032
-8.091 -7.596 -0.483
-8.147 -7.713 -0.423
-8.147 -7.713 -0.423
-6.616 -6.723 0.121
-6.839 -6.766 -0.059
-5.992 -6.796 0.818
-6.642 -6.720 0.091
-5.992 -6.796 0.818
-5.992 -6.796 0.818
-5.945 -6.189 0.259
-5.992 -6.796 0.818
-7.586 -7.541 -0.032
-6.839 -6.766 -0.059
-6.839 -6.766 -0.059
-8.091 -7.596 -0.483
-7.586 -7.541 -0.032
-5.992 -6.796 0.818
-8.112 -7.443 -0.656
-7.118 -6.741 -0.362
-7.620 -7.538 -0.069
-8.054 -7.461 -0.580
-6.393 -6.855 0.476
-6.253 -6.851 0.613
-5.115 -6.220 1.120
-6.393 -6.855 0.476
-6.393 -6.855 0.477
-6.839 -6.766 -0.059
-7.485 -7.151 -0.321
-8.054 -7.461 -0.580
-6.839 -6.766 -0.059
-5.992 -6.796 0.818
-6.642 -6.720 0.091
-7.620 -7.538 -0.069
-5.115 -6.220 1.120
-5.999 -6.795 0.811
-5.945 -6.189 0.259
-6.642 -6.720 0.091
-6.118 -6.768 0.666
-6.609 -6.727 0.132
-7.620 -7.538 -0.069
-5.020 -6.294 1.288
-8.054 -7.461 -0.580
-5.999 -6.795 0.811
-8.054 -7.461 -0.580
-7.495 -7.145 -0.336
-6.707 -6.693 -0.000
-7.612 -7.540 -0.059
-6.004 -6.796 0.806
-5.998 -6.797 0.813
-6.025 -6.797 0.787
-5.998 -6.797 0.814
-7.111 -6.743 -0.353
-8.105 -7.595 -0.499
-8.133 -7.713 -0.408
-5.055 -6.247 1.207
-6.387 -6.859 0.486
-6.597 -6.731 0.148
-5.055 -6.248 1.207
-8.133 -7.714 -0.408
-7.613 -7.540 -0.059
-6.025 -6.797 0.787
-6.831 -6.767 -0.051
-8.080 -7.596 -0.471
-5.931 -6.190 0.275
-6.831 -6.767 -0.051
-8.043 -7.462 -0.569
-5.998 -6.797 0.814
-6.387 -6.859 0.486
-6.831 -6.767 -0.051
-7.613 -7.540 -0.059
-6.958 -7.130 0.185
-8.081 -7.384 -0.684
-6.287 -6.797 0.524
-6.961 -7.143 0.196
-6.961 -7.143 0.196
-7.069 -6.381 -0.676
-6.603 -6.056 -0.535
-6.603 -6.056 -0.535
-6.773 -6.379 -0.385
-7.069 -6.381 -0.676
-6.603 -6.056 -0.535
-6.995 -6.601 -0.387
-6.178 -6.475 0.312
-7.083 -6.382 -0.689
-6.783 -6.379 -0.394
-7.255 -6.551 -0.693
-7.255 -6.551 -0.693
-6.532 -6.512 -0.004
-7.086 -6.382 -0.692
-5.283 -6.040 0.773
-6.666 -6.053 -0.601
-6.254 -6.498 0.259
-7.101 -6.382 -0.708
-7.101 -6.364 -0.724
-6.891 -7.250 0.374
-6.666 -6.053 -0.601
-6.666 -6.053 -0.601
-7.100 -6.381 -0.706
-6.671 -6.745 0.089
-7.272 -6.551 -0.710
-7.272 -6.551 -0.710
-6.671 -6.746 0.089
-6.550 -6.454 -0.082
-6.269 -6.118 -0.138
-6.635 -6.407 -0.213
-7.100 -6.382 -0.707
-6.795 -7.215 0.435
-6.828 -7.230 0.418
-6.666 -6.053 -0.601
-7.005 -6.598 -0.399
-7.005 -6.598 -0.399
-6.550 -6.454 -0.082
-7.272 -6.551 -0.710
-7.272 -6.551 -0.710
-6.255 -6.497 0.257
-6.550 -6.454 -0.081
-6.666 -6.053 -0.601
-6.869 -6.625 -0.233
-6.608 -6.460 -0.134
-6.666 -6.053 -0.601
-6.869 -6.625 -0.233
-6.671 -6.745 0.089
-6.671 -6.746 0.090
-7.272 -6.551 -0.711
-6.550 -6.454 -0.082
-6.891 -7.250 0.373
-6.518 -6.453 -0.050
-7.272 -6.551 -0.711
-7.272 -6.551 -0.711
-6.269 -6.118 -0.138
-6.891 -7.250 0.374
-6.875 -6.624 -0.240
-7.272 -6.551 -0.710
-7.272 -6.551 -0.710
-6.453 -6.211 -0.228
-6.891 -7.250 0.374
-6.668 -6.052 -0.603
-6.891 -7.250 0.373
-5.283 -6.412 1.144
-6.828 -7.230 0.417
-7.101 -6.382 -0.707
-7.274 -6.551 -0.712
-6.963 -7.269 0.321
-6.551 -6.454 -0.083
-6.892 -7.250 0.373
-6.892 -7.250 0.373
-6.892 -7.250 0.373
-6.892 -7.250 0.373
-6.693 -6.741 0.063
-6.892 -7.250 0.373
-6.892 -7.250 0.373
-6.892 -7.250 0.373
-6.693 -6.741 0.063
-6.693 -6.741 0.063
-6.551 -6.454 -0.083
-6.672 -6.746 0.089
-6.668 -6.052 -0.603
-6.141 -6.190 0.063
-6.609 -6.459 -0.136
-6.609 -6.459 -0.135
-6.964 -7.269 0.320
-6.693 -6.741 0.063
-7.274 -6.551 -0.712
-6.608 -6.460 -0.134
-6.892 -7.250 0.373
-5.268 -6.402 1.148
-7.274 -6.551 -0.712
-6.963 -7.269 0.321
-5.251 -6.042 0.806
-6.271 -6.117 -0.141
-6.965 -7.269 0.319
-6.671 -6.746 0.089
-6.744 -6.686 -0.047
-7.274 -6.551 -0.712
-6.608 -6.460 -0.134
-6.672 -6.746 0.089
-6.892 -7.250 0.373
-6.090 -6.143 0.067
-6.610 -6.460 -0.135
-6.668 -6.052 -0.603
-6.610 -6.460 -0.136
-6.091 -6.143 0.066
-6.737 -6.688 -0.038
-6.963 -7.269 0.321
-6.963 -7.269 0.321
-6.671 -6.745 0.089
-6.269 -6.119 -0.137
-6.550 -6.453 -0.082
-6.964 -7.269 0.320
-6.964 -7.269 0.320
-4.456 -5.924 1.483
-6.609 -6.459 -0.135
-6.550 -6.454 -0.082
-6.964 -7.269 0.320
-4.925 -6.375 1.465
-6.870 -6.625 -0.234
-6.870 -6.625 -0.234
-6.892 -7.250 0.373
-6.671 -6.746 0.089
-6.892 -6.461 -0.420
-6.964 -7.269 0.320
-6.090 -6.143 0.068
-6.964 -7.269 0.320
-6.550 -6.454 -0.082
-6.550 -6.454 -0.082
-6.609 -6.460 -0.135
-6.550 -6.454 -0.082
-5.268 -6.402 1.148
-5.268 -6.402 1.148
-6.964 -7.269 0.320
-6.609 -6.460 -0.135
-6.609 -6.460 -0.135
-5.272 -6.393 1.135
-6.964 -7.269 0.320
-6.964 -7.269 0.320
-6.964 -7.269 0.320
-6.269 -6.119 -0.137
-6.090 -6.143 0.067
-6.610 -6.460 -0.136
-6.965 -7.269 0.319
-6.965 -7.269 0.319
-5.273 -6.393 1.135
-6.518 -6.453 -0.051
-6.964 -7.269 0.320
-6.610 -6.460 -0.135
-6.269 -6.119 -0.137
-6.192 -6.480 0.298
-6.610 -6.459 -0.136
-6.965 -7.269 0.319
-6.965 -7.269 0.319
-5.273 -6.393 1.135
-6.550 -6.454 -0.082
-6.964 -7.269 0.320
-6.671 -6.746 0.090
-6.667 -6.749 0.097
-6.964 -7.269 0.320
-6.609 -6.460 -0.135
-6.476 -6.442 -0.019
-6.892 -7.250 0.373
-6.693 -6.741 0.063
-6.499 -6.523 0.037
-6.965 -7.269 0.319
-6.965 -7.269 0.319
-6.610 -6.460 -0.136
-6.119 -6.166 0.061
-4.944 -6.239 1.310
-6.965 -7.269 0.318
-6.610 -6.460 -0.136
-5.282 -6.412 1.144
-6.965 -7.269 0.318
-7.274 -6.551 -0.712
-6.608 -6.460 -0.134
-6.892 -7.250 0.373
-6.090 -6.143 0.067
-6.964 -7.269 0.320
-6.668 -6.052 -0.603
-6.610 -6.457 -0.139
-6.737 -6.687 -0.038
-5.272 -6.390 1.133
-5.393 -6.844 1.466
-6.495 -6.518 0.037
-6.609 -6.460 -0.135
-6.962 -7.273 0.326
-6.825 -7.234 0.424
-6.825 -7.234 0.424
-5.394 -6.859 1.480
-6.541 -6.459 -0.067
-6.890 -7.254 0.380
-6.112 -6.185 0.086
-6.075 -6.142 0.081
-6.552 -7.203 0.666
-6.565 -6.396 -0.153
-6.882 -7.254 0.386
-6.599 -6.466 -0.119
-6.599 -6.466 -0.119
-6.338 -6.436 0.112
-6.264 -6.510 0.261
-6.514 -6.454 -0.045
-6.605 -6.461 -0.129
-6.827 -7.230 0.418
-6.671 -6.747 0.091
-6.827 -7.230 0.418
-5.269 -6.391 1.137
-6.605 -6.461 -0.130
-6.964 -7.269 0.321
-6.091 -6.144 0.067
-6.442 -6.215 -0.214
-6.515 -6.454 -0.046
-6.547 -6.455 -0.077
-6.963 -7.269 0.321
-6.963 -7.269 0.321
-6.474 -6.441 -0.018
-6.254 -6.500 0.262
-5.238 -6.475 1.252
-5.437 -6.853 1.431
-6.607 -6.461 -0.131
-6.965 -7.269 0.319
-5.398 -6.848 1.464
-4.940 -6.238 1.313
-6.009 -6.209 0.214
-6.965 -7.269 0.320
-6.515 -6.453 -0.048
-6.515 -6.453 -0.048
-6.325 -6.464 0.153
-6.965 -7.269 0.319
-6.607 -6.461 -0.132
-5.399 -6.848 1.464
-6.829 -7.230 0.416
-6.829 -7.230 0.416
-6.608 -6.461 -0.132
-6.638 -6.406 -0.217
-4.941 -6.238 1.311
-7.268 -6.553 -0.703
-6.673 -6.746 0.089
-6.694 -6.742 0.063
-6.965 -7.269 0.319
-4.940 -6.238 1.313
-6.495 -6.518 0.037
-6.548 -6.455 -0.079
-5.270 -6.391 1.136
-6.744 -6.688 -0.044
-6.606 -6.461 -0.130
-6.673 -6.747 0.089
-6.965 -7.269 0.319
-6.893 -7.250 0.372
-5.399 -6.848 1.464
-6.344 -6.366 0.036
-6.965 -7.269 0.319
-6.554 -7.201 0.662
-6.965 -7.269 0.319
-6.694 -6.742 0.063
-6.694 -6.742 0.063
-6.666 -6.052 -0.601
-5.270 -6.391 1.136
-6.829 -7.230 0.417
-5.244 -6.042 0.813
-6.830 -7.230 0.415
-6.607 -6.461 -0.132
-6.556 -7.200 0.659
-6.672 -6.746 0.089
-6.672 -6.746 0.089
-5.270 -6.391 1.136
-6.606 -6.461 -0.131
-5.608 -6.882 1.290
-6.964 -7.269 0.320
-6.352 -6.441 0.104
-5.398 -6.846 1.464
-6.892 -7.249 0.373
-6.516 -6.453 -0.048
-6.516 -6.453 -0.048
-6.667 -6.052 -0.602
-6.966 -7.269 0.318
-6.553 -7.200 0.662
-6.865 -6.628 -0.225
-6.448 -6.557 0.119
-6.892 -7.249 0.372
-6.257 -6.499 0.257
-5.398 -6.846 1.464
-6.734 -6.691 -0.032
-6.446 -6.556 0.121
-6.554 -7.199 0.660
-5.038 -6.068 1.044
-5.134 -6.451 1.332
-6.892 -7.249 0.373
-5.398 -6.846 1.464
-5.436 -6.851 1.431
-6.672 -6.746 0.089
-6.323 -6.463 0.155
-6.323 -6.463 0.155
-6.672 -6.746 0.089
-6.606 -6.460 -0.131
-6.964 -7.269 0.319
-5.398 -6.846 1.464
-6.446 -6.556 0.121
-6.494 -6.518 0.038
-6.892 -7.249 0.373
-6.672 -6.746 0.089
-6.672 -6.746 0.089
-6.892 -7.249 0.373
-6.964 -7.269 0.319
-6.892 -7.249 0.373
-6.614 -7.222 0.622
-6.321 -6.464 0.157
-6.092 -6.144 0.066
-6.333 -6.546 0.224
-7.096 -6.385 -0.700
-5.270 -6.390 1.135
-5.397 -6.846 1.464
-6.963 -7.269 0.320
-6.892 -7.249 0.372
-5.398 -6.846 1.464
-6.965 -7.269 0.319
-6.615 -7.222 0.622
-5.398 -6.846 1.464
-6.892 -7.249 0.372
-4.917 -6.374 1.471
-6.742 -6.689 -0.042
-6.548 -6.454 -0.080
-6.965 -7.269 0.319
-6.322 -6.464 0.157
-6.345 -6.365 0.034
-7.001 -6.598 -0.395
-6.345 -6.365 0.035
-6.345 -6.365 0.035
-6.606 -6.460 -0.131
-6.892 -7.249 0.372
-5.398 -6.846 1.463
-6.965 -7.269 0.319
-6.548 -6.454 -0.080
-6.450 -6.557 0.117
-6.964 -7.269 0.320
-6.828 -7.230 0.416
-6.448 -6.557 0.118
-6.493 -6.518 0.038
-6.606 -6.465 -0.127
-6.493 -6.518 0.038
-6.554 -7.199 0.660
-5.079 -6.749 1.685
-4.916 -6.374 1.472
-6.262 -6.540 0.289
-6.964 -7.269 0.319
-7.001 -6.598 -0.395
-6.744 -6.688 -0.045
-6.673 -6.743 0.086