-5.500 -6.321 0.808
-5.500 -6.321 0.808
-5.500 -6.321 0.808
-5.054 -5.469 0.416
-5.290 -5.770 0.480
-5.030 -5.475 0.446
-5.290 -5.770 0.480
-5.290 -5.770 0.480
-5.500 -6.321 0.808
-5.098 -5.782 0.682
-5.182 -5.728 0.546
-4.707 -5.089 0.382
-5.500 -6.321 0.808
-5.098 -5.782 0.682
-4.999 -5.815 0.811
-5.500 -6.321 0.808
-5.054 -5.469 0.416
-5.277 -5.769 0.492
-5.500 -6.321 0.808
-4.571 -5.421 0.850
-5.054 -5.469 0.416
-5.500 -6.321 0.808
-5.500 -6.321 0.808
-5.500 -6.321 0.808
-4.571 -5.421 0.850
-5.300 -5.764 0.464
-5.300 -5.764 0.464
-5.300 -5.764 0.464
-5.054 -5.469 0.416
-5.098 -5.782 0.682
-5.500 -6.321 0.808
-5.054 -5.469 0.416
-5.290 -5.770 0.480
-5.382 -6.335 0.940
-5.157 -5.734 0.577
-5.030 -5.475 0.446
-5.277 -5.769 0.492
-5.500 -6.321 0.808
-5.206 -6.096 0.881
-5.486 -6.150 0.661
-5.500 -6.321 0.808
-5.054 -5.469 0.416
-4.999 -5.815 0.811
-5.054 -5.469 0.416
-5.500 -6.321 0.808
-5.500 -6.321 0.808
-4.571 -5.421 0.850
-5.181 -5.728 0.546
-5.500 -6.321 0.808
-5.500 -6.321 0.808
-5.500 -6.321 0.808
-5.290 -5.770 0.480
-5.182 -5.728 0.546
-5.182 -5.728 0.546
-5.290 -5.770 0.480
-4.707 -5.089 0.382
-5.290 -5.770 0.480
-5.500 -6.321 0.808
-5.054 -5.469 0.416
-5.054 -5.469 0.416
-5.157 -5.734 0.577
-5.500 -6.321 0.808
-5.290 -5.770 0.480
-5.157 -5.734 0.577
-5.277 -5.769 0.492
-5.500 -6.321 0.808
-5.649 -5.679 0.032
-5.183 -5.728 0.545
-5.206 -6.096 0.881
-5.206 -6.096 0.881
-5.182 -5.728 0.546
-5.095 -5.473 0.379
-5.157 -5.734 0.577
-5.277 -5.769 0.492
-4.595 -5.107 0.516
-5.500 -6.321 0.808
-5.182 -5.728 0.546
-5.277 -5.769 0.492
-5.649 -5.677 0.030
-5.290 -5.770 0.480
-5.649 -5.676 0.030
-5.158 -5.734 0.576
-5.054 -5.469 0.416
-5.290 -5.770 0.480
-4.707 -5.089 0.382
-5.095 -5.473 0.379
-5.290 -5.770 0.480
-5.182 -5.728 0.546
-5.182 -5.728 0.546
-5.500 -6.321 0.808
-4.999 -5.815 0.811
-5.300 -5.764 0.464
-5.277 -5.769 0.492
-5.182 -5.728 0.546
-5.336 -6.301 0.951
-5.500 -6.321 0.808
-4.571 -5.421 0.850
-5.382 -6.335 0.941
-5.382 -6.335 0.941
-5.277 -5.769 0.492
-5.182 -5.728 0.546
-5.290 -5.770 0.480
-5.054 -5.469 0.416
-5.182 -5.728 0.546
-5.054 -5.469 0.416
-5.054 -5.469 0.416
-5.098 -5.782 0.682
-5.300 -5.764 0.464
-5.277 -5.769 0.492
-5.500 -6.321 0.808
-5.277 -5.769 0.492
-5.277 -5.769 0.492
-5.182 -5.728 0.546
-5.277 -5.769 0.492
-5.500 -6.321 0.808
-5.054 -5.469 0.416
-4.710 -5.381 0.673
-5.277 -5.769 0.492
-5.300 -5.764 0.464
-5.182 -5.728 0.546
-5.500 -6.321 0.808
-4.595 -5.107 0.516
-5.206 -6.096 0.881
-5.382 -6.335 0.941
-5.290 -5.770 0.480
-5.040 -6.090 1.046
-5.095 -5.473 0.379
-5.290 -5.770 0.480
-5.500 -6.321 0.808
-5.300 -5.764 0.464
-5.277 -5.769 0.492
-5.277 -5.769 0.492
-5.277 -5.769 0.492
-5.054 -5.469 0.416
-5.563 -6.118 0.550
-5.690 -6.428 0.725
-5.121 -5.754 0.633
-4.825 -5.557 0.732
-5.115 -5.482 0.368
-5.344 -5.850 0.506
-5.578 -6.433 0.843
-5.690 -6.428 0.725
-4.812 -5.523 0.714
-5.367 -5.847 0.479
-4.958 -5.188 0.233
-5.344 -5.850 0.506
-5.344 -5.850 0.506
-5.115 -5.482 0.368
-4.825 -5.557 0.732
-5.690 -6.428 0.725
-4.825 -5.557 0.732
-5.344 -5.850 0.506
-4.724 -5.152 0.430
-5.344 -5.850 0.506
-5.358 -5.852 0.494
-5.358 -5.852 0.494
-5.563 -6.117 0.550
-5.358 -5.852 0.494
-5.344 -5.850 0.506
-5.690 -6.428 0.725
-4.610 -5.740 1.125
-5.367 -5.847 0.479
-5.044 -5.469 0.426
-4.842 -5.557 0.716
-5.367 -5.847 0.479
-5.044 -5.469 0.426
-5.690 -6.428 0.725
-5.663 -5.758 0.097
-5.160 -5.805 0.643
-4.825 -5.529 0.707
-5.690 -6.428 0.725
-5.344 -5.850 0.506
-5.344 -5.850 0.506
-4.664 -5.743 1.074
-4.941 -5.541 0.602
-4.941 -5.541 0.602
-5.690 -6.428 0.725
-5.367 -5.847 0.480
-5.367 -5.847 0.480
-5.663 -5.758 0.097
-4.724 -5.152 0.430
-5.690 -6.428 0.725
-5.344 -5.850 0.506
-5.663 -5.758 0.097
-5.120 -5.756 0.635
-4.610 -5.740 1.125
-5.358 -5.852 0.494
-5.367 -5.847 0.479
-4.825 -5.557 0.732
-5.563 -6.117 0.550
-5.690 -6.428 0.725
-4.724 -5.152 0.430
-5.367 -5.847 0.480
-4.825 -5.527 0.705
-4.610 -5.740 1.125
-5.663 -5.758 0.097
-5.690 -6.428 0.725
-5.663 -5.758 0.097
-4.610 -5.740 1.125
-5.344 -5.850 0.506
-4.610 -5.740 1.125
-4.941 -5.541 0.602
-4.825 -5.557 0.732
-5.344 -5.850 0.506
-5.367 -5.847 0.480
-5.367 -5.847 0.479
-5.367 -5.847 0.480
-4.812 -5.523 0.714
-4.812 -5.523 0.714
-5.690 -6.428 0.725
-5.277 -5.769 0.492
-5.182 -5.728 0.546
-5.649 -5.676 0.030
-5.277 -5.769 0.492
-5.277 -5.769 0.492
-5.277 -5.769 0.492
-5.277 -5.769 0.492
-5.277 -5.769 0.492
-5.300 -5.764 0.464
-4.573 -5.108 0.539
-5.277 -5.769 0.492
-5.636 -5.674 0.040
-5.183 -5.728 0.545
-5.206 -6.096 0.881
-4.684 -5.114 0.432
-4.710 -5.381 0.673
-5.277 -5.769 0.492
-5.277 -5.769 0.492
-5.336 -6.301 0.951
-5.636 -5.675 0.041
-5.290 -5.770 0.480
-5.500 -6.321 0.808
-4.930 -5.043 0.116
-5.500 -6.321 0.808
-4.684 -5.114 0.432
-4.595 -5.107 0.516
-4.684 -5.114 0.432
-5.182 -5.728 0.546
-4.707 -5.089 0.382
-4.710 -5.381 0.673
-5.095 -5.473 0.379
-5.277 -5.769 0.492
-5.641 -5.683 0.046
-5.649 -5.676 0.030
-4.587 -5.425 0.839
-5.336 -6.301 0.951
-4.710 -5.380 0.672
-5.054 -5.469 0.416
-5.054 -5.469 0.416
-5.277 -5.769 0.492
-5.290 -5.770 0.480
-5.382 -6.335 0.940
-5.095 -5.473 0.379
-5.095 -5.473 0.379
-5.052 -6.095 1.038
-5.382 -6.335 0.940
-5.182 -5.728 0.546
-5.054 -5.469 0.416
-5.182 -5.728 0.546
-4.710 -5.381 0.673
-5.382 -6.334 0.939
-5.290 -5.770 0.480
-5.071 -5.479 0.409
-4.707 -5.089 0.382
-5.300 -5.764 0.464
-5.277 -5.769 0.492
-5.500 -6.321 0.808
-4.684 -5.114 0.432
-5.490 -6.166 0.679
-5.183 -5.728 0.544
-5.183 -5.728 0.544
-4.710 -5.381 0.673
-4.710 -5.381 0.673
-4.710 -5.381 0.673
-5.052 -6.095 1.038
-5.182 -5.728 0.546
-5.640 -5.683 0.047
-5.500 -6.321 0.808
-5.500 -6.321 0.808
-5.277 -5.769 0.492
-5.500 -6.321 0.808
-4.710 -5.381 0.673
-4.710 -5.381 0.673
-5.500 -6.321 0.808
-4.710 -5.381 0.673
-5.300 -5.764 0.464
-5.179 -5.728 0.548
-4.571 -5.420 0.850
-5.640 -5.683 0.047
-5.277 -5.769 0.492
-4.609 -4.502 -0.104
-5.500 -6.321 0.808
-5.277 -5.769 0.491
-5.635 -5.674 0.041
-4.571 -5.421 0.850
-5.040 -6.090 1.045
-5.500 -6.326 0.812
-5.055 -5.469 0.415
-5.111 -5.197 0.089
-5.071 -5.479 0.408
-5.054 -5.469 0.415
-5.182 -5.728 0.546
-5.300 -5.764 0.463
-5.277 -5.769 0.491
-5.500 -6.321 0.808
-5.182 -5.728 0.545
-5.500 -6.321 0.808
-5.500 -6.321 0.808
-5.602 -5.809 0.211
-5.040 -6.090 1.045
-5.635 -5.674 0.041
-5.640 -5.683 0.047
-4.709 -5.382 0.675
-5.277 -5.769 0.491
-5.111 -5.197 0.089
-5.602 -5.809 0.211
-5.640 -5.683 0.047
-4.710 -5.381 0.674
-5.290 -5.770 0.480
-5.500 -6.321 0.808
-5.640 -5.683 0.047
-5.500 -6.321 0.808
-5.500 -6.321 0.808
-5.071 -5.479 0.408
-4.709 -5.381 0.674
-4.709 -5.381 0.674
-4.710 -5.381 0.674
-5.095 -5.473 0.378
-5.500 -6.321 0.808
-5.206 -6.096 0.880
-5.648 -5.676 0.031
-5.635 -5.674 0.041
-4.999 -5.815 0.810
-4.685 -5.088 0.403
-5.602 -5.809 0.211
-5.277 -5.769 0.491
-4.710 -5.381 0.674
-5.047 -6.097 1.046
-4.187 -4.937 0.746
-4.710 -5.381 0.674
-5.111 -5.197 0.089
-4.710 -5.381 0.674
-5.052 -6.094 1.038
-5.040 -6.090 1.045
-5.277 -5.769 0.491
-4.710 -5.381 0.674
-5.054 -5.469 0.415
-5.182 -5.728 0.546
-4.587 -5.424 0.839
-5.230 -6.098 0.859
-5.040 -6.090 1.045
-4.710 -5.381 0.674
-5.047 -6.097 1.046
-5.640 -5.683 0.047
-4.662 -5.383 0.723
-5.317 -5.898 0.584
-5.647 -5.671 0.026
-5.635 -5.673 0.040
-5.635 -5.674 0.041
-4.708 -5.089 0.381
-5.500 -6.321 0.808
-5.500 -6.321 0.808
-5.206 -6.096 0.880
-5.206 -6.096 0.880
-4.710 -5.381 0.674
-5.602 -5.809 0.211
-5.040 -6.090 1.045
-5.382 -6.335 0.940
-5.356 -6.231 0.868
-5.382 -6.335 0.940
-5.382 -6.335 0.940
-5.071 -5.479 0.408
-5.277 -5.769 0.491
-5.047 -6.097 1.046
-5.071 -5.479 0.408
-4.999 -5.815 0.810
-5.500 -6.321 0.808
-5.590 -5.811 0.225
-4.710 -5.381 0.674
-5.640 -5.683 0.047
-5.181 -5.728 0.547
-5.500 -6.321 0.808
-4.187 -4.937 0.746
-4.710 -5.381 0.674
-5.157 -5.734 0.577
-4.684 -5.113 0.430
-5.040 -6.090 1.045
-4.929 -5.043 0.117
-4.710 -5.381 0.674
-5.486 -6.150 0.661
-5.602 -5.809 0.211
-5.228 -6.099 0.861
-4.709 -5.381 0.674
-4.684 -5.113 0.431
-4.710 -5.381 0.674
-5.500 -6.321 0.808
-4.685 -5.088 0.404
-4.187 -4.937 0.746
-5.486 -6.150 0.661
-4.573 -5.108 0.538
-5.277 -5.769 0.491
-5.602 -5.809 0.211
-5.640 -5.683 0.047
-5.640 -5.683 0.047
-5.291 -5.453 0.163
-4.710 -5.381 0.674
-5.095 -5.473 0.378
-5.040 -6.090 1.045
-5.300 -5.764 0.463
-4.685 -5.088 0.404
-5.602 -5.809 0.211
-5.291 -5.453 0.163
-5.500 -6.321 0.808
-4.710 -5.381 0.674
-4.187 -4.937 0.746
-4.187 -4.937 0.746
-4.710 -5.381 0.674
-5.182 -5.728 0.546
-4.929 -5.043 0.117
-5.500 -6.321 0.808
-4.710 -5.381 0.673
-4.710 -5.381 0.673
-5.500 -6.321 0.808
-5.300 -5.764 0.464
-5.300 -5.764 0.464
-5.603 -5.809 0.209
-5.157 -5.734 0.577
-5.157 -5.734 0.577
-5.603 -5.809 0.209
-4.187 -4.937 0.746
-5.602 -5.809 0.210
-5.500 -6.321 0.808
-5.500 -6.321 0.808
-5.047 -6.097 1.046
-5.047 -6.097 1.046
-5.030 -5.475 0.446
-5.030 -5.475 0.446
-5.640 -5.683 0.047
-5.640 -5.683 0.047
-4.684 -5.113 0.432
-5.040 -6.090 1.045
-4.573 -5.108 0.539
-4.684 -5.089 0.404
-5.640 -5.683 0.047
-4.545 -4.663 0.121
-5.040 -6.090 1.045
-5.382 -6.335 0.940
-5.602 -5.809 0.210
-5.640 -5.683 0.047
-4.710 -5.381 0.674
-4.710 -5.381 0.674
-4.573 -5.108 0.539
-5.640 -5.683 0.047
-5.245 -6.099 0.845
-5.047 -6.097 1.046
-5.590 -5.811 0.225
-5.590 -5.811 0.225
-5.602 -5.809 0.210
-5.277 -5.769 0.492
-4.609 -4.503 -0.103
-5.047 -6.097 1.046
-4.182 -4.804 0.614
-4.609 -4.502 -0.104
-4.182 -4.804 0.614
-5.486 -6.150 0.661
-5.602 -5.809 0.210
-4.187 -4.937 0.746
-4.187 -4.937 0.746
-5.292 -5.453 0.163
-5.602 -5.809 0.210
-5.640 -5.683 0.047
-5.636 -5.674 0.041
-4.684 -5.114 0.432
-4.710 -5.381 0.674
-5.182 -5.728 0.546
-5.157 -5.734 0.577
-4.710 -5.381 0.674
-4.710 -5.381 0.674
-5.030 -5.475 0.446
-5.602 -5.809 0.210
-4.710 -5.381 0.674
-4.710 -5.381 0.674
-4.710 -5.381 0.674
-4.710 -5.381 0.674
-4.187 -4.937 0.746
-5.207 -6.096 0.880
-4.187 -4.937 0.746
-5.097 -5.196 0.103
-4.182 -4.804 0.614
-4.532 -4.718 0.188
-5.590 -5.811 0.225
-5.071 -5.479 0.409
-5.290 -5.770 0.480
-5.290 -5.770 0.480
-4.710 -5.381 0.674
-4.573 -5.108 0.539
-5.648 -5.676 0.031
-5.292 -5.453 0.163
-5.648 -5.676 0.030
-5.500 -6.321 0.808
-4.684 -5.114 0.432
-5.500 -6.321 0.808
-5.486 -6.151 0.661
-5.245 -6.099 0.845
-4.187 -4.937 0.746
-5.040 -6.090 1.045
-5.040 -6.090 1.045
-4.609 -4.502 -0.104
-4.710 -5.381 0.674
-4.710 -5.381 0.674
-5.640 -5.683 0.047
-5.590 -5.811 0.225
-5.590 -5.811 0.225
-4.710 -5.381 0.674
-5.207 -6.096 0.880
-4.710 -5.381 0.674
-5.229 -6.099 0.861
-5.043 -5.774 0.728
-4.999 -5.815 0.810
-4.543 -4.676 0.136
-5.207 -6.096 0.880
-5.054 -5.469 0.416
-4.710 -5.381 0.674
-5.300 -5.764 0.464
-5.111 -5.197 0.089
-5.229 -6.099 0.861
-5.500 -6.321 0.808
-4.999 -5.815 0.810
-5.277 -5.769 0.492
-5.040 -6.090 1.045
-5.052 -6.094 1.038
-4.684 -5.089 0.404
-4.187 -4.937 0.746
-4.710 -5.381 0.674
-4.999 -5.815 0.810
-4.545 -4.661 0.118
-4.187 -4.937 0.746
-5.207 -6.096 0.880
-5.231 -6.098 0.858
-4.710 -5.381 0.674
-4.710 -5.381 0.674
-5.098 -5.782 0.681
-4.710 -5.381 0.674
-5.040 -6.090 1.045
-5.207 -6.096 0.880
-5.640 -5.683 0.047
-5.097 -5.196 0.103
-5.382 -6.335 0.940
-4.929 -5.043 0.117
-4.682 -5.013 0.334
-5.100 -5.196 0.099
-5.639 -5.674 0.037
-4.711 -5.381 0.673
-5.208 -6.096 0.878
-5.605 -5.809 0.207
-4.711 -5.381 0.673
-5.488 -6.149 0.657
-4.711 -5.381 0.673
-5.100 -5.196 0.099
-5.278 -5.769 0.490
-4.188 -4.937 0.745
-5.049 -6.098 1.044
-5.643 -5.683 0.044
-5.230 -6.099 0.859
-4.711 -5.381 0.673
-5.605 -5.809 0.207
-4.711 -5.381 0.673
-4.711 -5.381 0.673
-5.208 -6.096 0.878
-4.188 -4.937 0.745
-4.918 -5.042 0.127
-5.208 -6.096 0.878
-5.042 -6.090 1.043
-5.502 -6.321 0.805
-4.711 -5.381 0.673
-5.100 -5.196 0.099
-4.588 -5.425 0.838
-5.643 -5.683 0.044
-4.711 -5.381 0.673
-5.654 -5.684 0.034
-5.605 -5.809 0.207
-4.547 -4.658 0.115
-5.100 -5.196 0.099
-4.539 -4.647 0.112
-4.573 -5.108 0.539
-5.488 -6.149 0.657
-5.502 -6.321 0.805
-5.605 -5.809 0.207
-5.651 -5.675 0.026
-5.643 -5.683 0.044
-4.685 -5.089 0.404
-5.114 -5.196 0.085
-5.488 -6.149 0.657
-4.719 -5.383 0.667
-5.605 -5.809 0.207
-4.943 -5.810 0.862
-4.711 -5.381 0.673
-4.684 -5.114 0.431
-5.230 -6.099 0.859
-5.100 -5.196 0.099
-4.711 -5.381 0.673
-4.188 -4.937 0.745
-5.246 -6.099 0.844
-5.502 -6.321 0.805
-4.188 -4.937 0.745
-5.605 -5.809 0.207
-4.532 -4.715 0.185
-5.302 -5.764 0.462
-5.049 -6.098 1.044
-5.605 -5.809 0.207
-5.230 -5.561 0.328
-5.549 -5.633 0.087
-5.230 -5.561 0.328
-5.549 -5.633 0.087
-5.549 -5.633 0.087
-5.725 -5.635 -0.088
-5.486 -5.577 0.093
-5.545 -5.632 0.090
-5.408 -5.564 0.154
-5.225 -5.560 0.332
-5.225 -5.560 0.332
-5.545 -5.632 0.090
-5.408 -5.564 0.154
-5.327 -5.312 -0.012
-5.499 -5.631 0.134
-5.545 -5.632 0.090
-5.733 -5.634 -0.097
-5.258 -5.574 0.319
-5.225 -5.560 0.332
-5.733 -5.634 -0.097
-5.726 -5.635 -0.088
-5.220 -5.561 0.339
-5.541 -5.633 0.095
-15.655 -4.234 -11.460
-5.221 -5.561 0.337
-5.730 -5.635 -0.093
-5.221 -5.561 0.337
-5.221 -5.561 0.337
-5.403 -5.565 0.160
-5.221 -5.561 0.336
-5.403 -5.565 0.160
-5.221 -5.561 0.336
-4.892 -5.340 0.447
-5.730 -5.635 -0.093
-5.543 -5.633 0.093
-5.497 -5.631 0.137
-5.284 -5.575 0.294
-5.255 -5.575 0.322
-5.255 -5.575 0.322
-5.730 -5.635 -0.093
-5.403 -5.565 0.160
-5.497 -5.631 0.137
-5.284 -5.575 0.294
-5.543 -5.633 0.093
-5.543 -5.633 0.093
-4.892 -5.340 0.447
-5.221 -5.561 0.336
-5.403 -5.565 0.160
-5.543 -5.633 0.093
-5.196 -5.560 0.361
-5.312 -5.562 0.247
-4.892 -5.340 0.447
-5.543 -5.633 0.093
-5.543 -5.633 0.093
-5.255 -5.575 0.322
-5.403 -5.565 0.160
-5.543 -5.633 0.093
-5.484 -5.579 0.098
-4.892 -5.340 0.447
-5.403 -5.565 0.160
-5.730 -5.635 -0.093
-5.403 -5.565 0.160
-5.314 -5.316 0.004
-4.892 -5.341 0.447
-5.543 -5.633 0.093
-5.730 -5.635 -0.093
-5.730 -5.635 -0.093
-5.543 -5.633 0.093
-5.543 -5.633 0.093
-5.403 -5.565 0.160
-5.221 -5.561 0.336
-5.403 -5.565 0.160
-5.255 -5.575 0.322
-5.375 -5.576 0.203
-5.730 -5.635 -0.093
-5.221 -5.561 0.336
-5.543 -5.633 0.093
-5.543 -5.633 0.093
-4.892 -5.340 0.447
-5.668 -5.634 -0.032
-5.404 -5.564 0.159
-5.313 -5.562 0.246
-5.544 -5.632 0.090
-5.313 -5.562 0.246
-5.544 -5.632 0.090
-4.967 -5.247 0.280
-5.256 -5.574 0.321
-5.376 -5.576 0.202
-5.544 -5.632 0.090
-5.498 -5.630 0.135
-5.285 -5.575 0.292
-5.315 -5.316 0.003
-5.376 -5.576 0.202
-5.404 -5.564 0.159
-5.197 -5.559 0.359
-5.404 -5.564 0.159
-5.544 -5.632 0.090
-5.732 -5.634 -0.095
-4.892 -5.340 0.446
-5.404 -5.564 0.159
-5.544 -5.632 0.090
-5.040 -5.315 0.277
-4.892 -5.340 0.446
-5.544 -5.632 0.090
-5.732 -5.634 -0.095
-5.668 -5.634 -0.032
-5.732 -5.634 -0.095
-5.404 -5.564 0.159
-5.544 -5.632 0.090
-5.544 -5.632 0.090
-5.197 -5.559 0.359
-5.544 -5.632 0.090
-5.256 -5.574 0.321
-4.892 -5.340 0.446
-5.544 -5.632 0.090
-4.892 -5.340 0.446
-5.544 -5.632 0.090
-5.544 -5.632 0.090
-5.544 -5.632 0.090
-5.498 -5.630 0.135
-5.544 -5.632 0.090
-5.498 -5.630 0.135
-4.892 -5.340 0.446
-5.544 -5.632 0.090
-5.256 -5.574 0.321
-5.285 -5.575 0.292
-5.404 -5.564 0.159
-5.197 -5.559 0.359
-5.498 -5.630 0.134
-4.695 -5.200 0.509
-5.404 -5.564 0.159
-5.197 -5.559 0.359
-5.544 -5.632 0.090
-5.165 -5.725 0.563
-5.498 -5.630 0.135
-4.695 -5.200 0.509
-5.498 -5.630 0.135
-5.256 -5.574 0.321
-5.142 -5.750 0.612
-4.695 -5.200 0.509
-5.498 -5.630 0.135
-5.244 -5.749 0.509
-4.892 -5.340 0.446
-5.244 -5.750 0.509
-5.498 -5.630 0.135
-5.404 -5.564 0.159
-4.673 -4.894 0.225
-5.244 -5.750 0.509
-5.129 -5.740 0.614
-5.040 -5.316 0.277
-5.197 -5.559 0.359
-5.197 -5.559 0.359
-5.040 -5.315 0.277
-5.404 -5.564 0.159
-5.040 -5.315 0.277
-5.256 -5.574 0.321
-4.695 -5.200 0.509
-4.695 -5.200 0.509
-5.498 -5.630 0.135
-4.475 -5.063 0.591
-4.673 -4.894 0.225
-4.938 -5.517 0.582
-5.732 -5.634 -0.095
-5.498 -5.630 0.135
-5.498 -5.630 0.135
-5.040 -5.315 0.277
-4.673 -4.894 0.225
-4.673 -4.894 0.225
-4.649 -5.006 0.361
-4.810 -5.335 0.528
-4.929 -5.501 0.575
-4.929 -5.501 0.575
-5.484 -5.578 0.096
-5.404 -5.564 0.159
-4.811 -5.335 0.528
-4.673 -4.894 0.225
-5.129 -5.740 0.614
-4.938 -5.517 0.582
-5.244 -5.749 0.509
-5.165 -5.725 0.563
-5.256 -5.574 0.321
-5.256 -5.574 0.321
-4.673 -4.894 0.225
-4.810 -5.335 0.528
-5.544 -5.632 0.090
-5.197 -5.559 0.359
-4.673 -4.894 0.225
-4.852 -5.223 0.375
-4.774 -5.182 0.412
-5.498 -5.630 0.135
-5.142 -5.750 0.612
-4.852 -5.223 0.375
-4.928 -5.501 0.575
-5.197 -5.559 0.359
-4.928 -5.501 0.575
-4.852 -5.223 0.375
-5.244 -5.750 0.509
-5.244 -5.749 0.509
-5.165 -5.725 0.563
-5.544 -5.632 0.090
-5.142 -5.750 0.612
-4.938 -5.517 0.582
-4.810 -5.335 0.528
-4.938 -5.517 0.582
-5.544 -5.632 0.090
-4.673 -4.894 0.225
-5.404 -5.564 0.159
-5.544 -5.632 0.090
-5.544 -5.632 0.090
-4.938 -5.517 0.582
-4.928 -5.501 0.575
-5.165 -5.725 0.563
-4.649 -5.006 0.361
-4.774 -5.182 0.412
-5.732 -5.634 -0.095
-5.453 -5.629 0.179
-4.673 -4.894 0.225
-4.649 -5.006 0.361
-4.448 -5.384 0.939
-4.967 -5.500 0.536
-5.197 -5.559 0.359
-5.256 -5.574 0.321
-5.197 -5.559 0.359
-5.256 -5.574 0.321
-4.774 -5.182 0.412
-5.092 -5.741 0.652
-5.244 -5.750 0.509
-4.810 -5.335 0.528
-4.695 -5.200 0.509
-4.810 -5.335 0.528
-5.294 -5.576 0.284
-4.647 -5.008 0.365
-5.147 -5.728 0.585
-5.452 -5.631 0.181
-5.219 -5.752 0.536
-4.669 -4.899 0.233
-4.903 -5.515 0.614
-4.932 -5.538 0.609
-5.219 -5.752 0.536
-5.726 -5.635 -0.088
-5.195 -5.560 0.362
-4.647 -5.008 0.364
-4.903 -5.515 0.615
-5.195 -5.560 0.362
-5.541 -5.633 0.095
-4.673 -5.075 0.405
-4.839 -5.225 0.390
-4.692 -5.201 0.512
-4.903 -5.515 0.615
-4.903 -5.515 0.615
-4.472 -5.062 0.594
-5.194 -5.560 0.363
-4.808 -5.336 0.531
-4.839 -5.225 0.390
-5.031 -5.318 0.288
-4.839 -5.225 0.390
-5.031 -5.318 0.288
-4.903 -5.515 0.615
-5.240 -5.750 0.514
-5.398 -5.565 0.165
-5.495 -5.631 0.139
-4.692 -5.201 0.513
-4.808 -5.336 0.531
-4.808 -5.336 0.531
-4.425 -5.006 0.584
-4.903 -5.515 0.615
-5.541 -5.633 0.095
-4.669 -4.899 0.233
-4.425 -5.006 0.585
-4.669 -4.899 0.233
-4.425 -5.006 0.585
-4.692 -5.201 0.512
-4.941 -5.515 0.576
-5.495 -5.631 0.139
-4.673 -5.075 0.405
-5.174 -5.560 0.383
-4.425 -5.006 0.585
-4.761 -5.184 0.426
-4.839 -5.225 0.390
-4.839 -5.225 0.390
-4.761 -5.184 0.426
-4.941 -5.515 0.576
-5.160 -5.726 0.569
-5.194 -5.560 0.363
-5.031 -5.318 0.288
-5.398 -5.565 0.165
-4.673 -5.075 0.405
-4.933 -5.539 0.609
-4.692 -5.201 0.512
-4.692 -5.201 0.512
-4.762 -5.184 0.426
-5.254 -5.575 0.324
-5.138 -5.751 0.617
-5.123 -5.741 0.620
-4.839 -5.225 0.390
-4.839 -5.225 0.390
-4.670 -4.899 0.233
-4.761 -5.184 0.426
-4.448 -5.405 0.960
-5.215 -5.752 0.540
-5.240 -5.750 0.514
-5.123 -5.741 0.620
-4.839 -5.225 0.390
-5.138 -5.751 0.617
-5.541 -5.633 0.095
-4.839 -5.225 0.390
-4.448 -5.405 0.960
-4.903 -5.515 0.615
-5.240 -5.750 0.514
-4.988 -5.322 0.335
-5.086 -5.742 0.658
-5.123 -5.741 0.620
-5.253 -5.575 0.324
-5.194 -5.560 0.363
-5.194 -5.560 0.363
-5.160 -5.726 0.569
-5.240 -5.750 0.514
-5.174 -5.560 0.383
-5.137 -5.751 0.617
-4.988 -5.322 0.335
-5.218 -5.574 0.358
-5.449 -5.630 0.184
-4.692 -5.201 0.512
-5.087 -5.742 0.657
-4.692 -5.201 0.512
-4.808 -5.335 0.531
-4.989 -5.321 0.334
-5.195 -5.560 0.362
-4.472 -5.062 0.593
-5.726 -5.635 -0.089
-4.990 -5.322 0.333
-5.219 -5.574 0.358
-4.990 -5.322 0.333
-5.449 -5.630 0.183
-5.541 -5.633 0.094
-5.495 -5.631 0.139
-4.692 -5.201 0.512
-4.839 -5.225 0.389
-5.449 -5.630 0.184
-4.903 -5.515 0.614
-4.742 -5.119 0.381
-4.221 -4.460 0.242
-4.221 -4.460 0.242
-5.195 -5.560 0.362
-5.254 -5.575 0.323
-5.254 -5.575 0.323
-4.472 -5.062 0.593
-5.032 -5.318 0.287
-4.673 -5.074 0.404
-4.673 -5.074 0.404
-5.138 -5.751 0.617
-5.399 -5.565 0.164
-4.990 -5.322 0.332
-4.701 -4.916 0.219
-4.840 -5.225 0.389
-4.762 -5.184 0.425
-5.195 -5.560 0.362
-5.399 -5.565 0.164
-4.990 -5.322 0.333
-4.473 -5.063 0.593
-5.880 -5.357 -0.521
-5.248 -5.216 -0.031
-5.248 -5.216 -0.031
-5.423 -5.305 -0.115
-5.141 -5.215 0.074
-5.248 -5.216 -0.031
-5.088 -5.436 0.351
-5.554 -5.319 -0.233
-5.554 -5.319 -0.233
-5.422 -5.302 -0.118
-5.422 -5.305 -0.115
-5.140 -5.215 0.075
-5.422 -5.305 -0.115
-5.248 -5.216 -0.031
-3.849 -4.563 0.715
-5.556 -5.319 -0.235
-5.250 -5.216 -0.034
-5.250 -5.216 -0.034
-3.849 -4.563 0.715
-5.422 -5.301 -0.118
-4.075 -4.820 0.744
-5.422 -5.305 -0.115
-5.556 -5.319 -0.235
-3.849 -4.563 0.715
-5.556 -5.319 -0.235
-5.422 -5.301 -0.119
-5.088 -5.436 0.351
-5.423 -5.305 -0.116
-5.423 -5.305 -0.116
-5.556 -5.319 -0.235
-5.422 -5.301 -0.119
-5.422 -5.301 -0.119
-5.088 -5.436 0.351
-5.141 -5.215 0.074
-5.250 -5.216 -0.034
-5.250 -5.216 -0.034
-5.424 -5.305 -0.117
-5.424 -5.305 -0.117
-3.849 -4.563 0.715
-4.061 -5.046 0.985
-5.423 -5.305 -0.115
-5.423 -5.305 -0.115
-5.140 -5.215 0.075
-3.849 -4.563 0.715
-5.423 -5.305 -0.115
-5.556 -5.319 -0.235
-5.422 -5.301 -0.119
-5.422 -5.301 -0.119
-3.849 -4.563 0.715
-4.075 -4.820 0.744
-3.938 -5.049 1.112
-5.250 -5.216 -0.034
-5.424 -5.305 -0.117
-5.088 -5.436 0.350
-5.088 -5.436 0.350
-3.984 -4.601 0.619
-5.088 -5.436 0.351
-5.088 -5.436 0.351
-5.250 -5.216 -0.034
-3.836 -4.563 0.728
-5.088 -5.435 0.351
-5.088 -5.436 0.351
-3.984 -4.601 0.619
-4.817 -5.383 0.568
-3.849 -4.563 0.715
-3.836 -4.563 0.728
-5.141 -5.215 0.074
-5.422 -5.301 -0.119
-3.849 -4.563 0.715
-5.423 -5.305 -0.115
-5.422 -5.301 -0.118
-4.541 -4.791 0.253
-5.556 -5.319 -0.235
-5.423 -5.305 -0.116
-5.423 -5.305 -0.116
-5.556 -5.319 -0.235
-3.849 -4.563 0.715
-5.092 -5.436 0.347
-5.556 -5.319 -0.235
-5.088 -5.436 0.351
-5.133 -5.437 0.308
-5.429 -5.306 -0.121
-5.145 -5.215 0.069
-5.425 -5.301 -0.123
-3.830 -4.563 0.734
-5.427 -5.305 -0.120
-3.816 -4.562 0.747
-3.816 -4.564 0.750
-5.145 -5.215 0.070
-5.255 -5.216 -0.039
-5.092 -5.436 0.347
-4.075 -4.820 0.743
-4.075 -4.820 0.743
-5.561 -5.319 -0.239
-5.428 -5.305 -0.120
-5.561 -5.319 -0.239
-4.703 -5.388 0.686
-5.561 -5.319 -0.239
-3.849 -4.563 0.715
-3.849 -4.563 0.715
-3.849 -4.563 0.715
-5.561 -5.319 -0.239
-5.428 -5.305 -0.120
-5.255 -5.216 -0.039
-5.561 -5.319 -0.239
-3.984 -4.601 0.619
-3.984 -4.601 0.619
-4.075 -4.820 0.744
-5.561 -5.319 -0.239
-4.821 -5.383 0.564
-5.093 -5.435 0.346
-4.704 -5.386 0.684
-5.428 -5.305 -0.121
-5.428 -5.305 -0.121
-5.428 -5.305 -0.120
-4.704 -5.386 0.683
-5.561 -5.319 -0.240
-5.561 -5.319 -0.240
-4.704 -5.386 0.684
-5.146 -5.214 0.069
-5.561 -5.319 -0.240
-5.428 -5.305 -0.121
-5.561 -5.319 -0.240
-3.849 -4.563 0.715
-4.075 -4.820 0.743
-5.144 -5.215 0.071
-3.835 -4.563 0.728
-4.569 -5.377 0.810
-4.656 -5.518 0.864
-3.984 -4.601 0.619
-3.984 -4.601 0.619
-5.144 -5.215 0.071
-4.821 -5.383 0.564
-4.821 -5.383 0.564
-3.849 -4.564 0.715
-5.426 -5.300 -0.123
-5.428 -5.305 -0.120
-4.821 -5.383 0.564
-3.984 -4.601 0.619
-3.984 -4.601 0.619
-4.704 -5.386 0.684
-5.427 -5.306 -0.119
-3.984 -4.601 0.619
-5.425 -5.301 -0.122
-4.642 -5.075 0.435
-4.758 -5.387 0.632
-5.427 -5.306 -0.119
-3.984 -4.601 0.619
-4.821 -5.383 0.564
-3.984 -4.601 0.619
-5.427 -5.306 -0.119
-5.425 -5.301 -0.122
-4.704 -5.386 0.684
-3.835 -4.563 0.728
-4.821 -5.383 0.564
-4.821 -5.383 0.564
-4.748 -5.168 0.424
-5.426 -5.300 -0.124
-4.075 -4.820 0.743
-4.731 -5.195 0.468
-5.427 -5.306 -0.119
-5.427 -5.306 -0.119
-5.144 -5.215 0.071
-5.427 -5.306 -0.119
-3.984 -4.601 0.619
-5.255 -5.216 -0.039
-3.849 -4.563 0.715
-4.632 -5.181 0.553
-5.561 -5.319 -0.240
-5.561 -5.319 -0.240
-5.093 -5.435 0.346
-4.821 -5.383 0.564
-4.075 -4.820 0.743
-5.427 -5.306 -0.119
-4.821 -5.383 0.564
-4.656 -5.518 0.864
-4.821 -5.383 0.564
-3.849 -4.563 0.715
-5.428 -5.305 -0.120
-4.821 -5.383 0.564
-4.748 -5.168 0.424
-5.428 -5.305 -0.120
-5.426 -5.300 -0.123
-4.704 -5.386 0.683
-5.255 -5.216 -0.039
-5.255 -5.216 -0.039
-5.429 -5.305 -0.121
-4.642 -5.075 0.435
-5.429 -5.305 -0.121
-4.758 -5.387 0.631
-5.147 -5.214 0.067
-4.758 -5.387 0.631
-5.561 -5.319 -0.240
-5.561 -5.319 -0.240
-5.561 -5.319 -0.240
-4.556 -5.151 0.599
-4.642 -5.075 0.435
-4.758 -5.387 0.632
-5.093 -5.435 0.346
-5.561 -5.319 -0.240
-4.642 -5.075 0.435
-4.821 -5.383 0.564
-5.561 -5.319 -0.240
-3.984 -4.601 0.619
-4.821 -5.383 0.564
-4.075 -4.820 0.743
-3.849 -4.563 0.715
-4.075 -4.820 0.743
-4.821 -5.383 0.564
-3.984 -4.601 0.619
-4.821 -5.383 0.564
-4.821 -5.383 0.564
-4.758 -5.387 0.632
-5.561 -5.319 -0.240
-5.561 -5.319 -0.240
-5.561 -5.319 -0.240
-5.561 -5.319 -0.240
-5.561 -5.319 -0.240
-5.561 -5.319 -0.240
-4.391 -5.386 0.996
-3.984 -4.601 0.619
-5.427 -5.306 -0.119
-5.092 -5.435 0.346
-4.821 -5.383 0.564
-4.512 -4.789 0.281
-5.255 -5.216 -0.039
-5.093 -5.435 0.346
-3.984 -4.601 0.619
-3.984 -4.601 0.619
-4.395 -5.385 0.992
-3.984 -4.601 0.619
-5.427 -5.306 -0.119
-4.821 -5.383 0.564
-4.395 -5.385 0.992
-4.395 -5.385 0.992
-4.632 -5.181 0.553
-5.425 -5.301 -0.122
-5.092 -5.435 0.346
-4.093 -5.648 1.553
-3.877 -5.014 1.136
-4.758 -5.387 0.632
-5.255 -5.216 -0.039
-4.555 -5.460 0.908
-4.727 -5.164 0.439
-4.704 -5.386 0.683
-5.676 -5.967 0.295
-5.572 -6.014 0.446
-5.604 -6.116 0.515
-4.470 -5.375 0.905
-4.470 -5.375 0.905
-5.563 -6.016 0.456
-5.903 -6.154 0.255
-5.795 -6.161 0.369
-5.469 -5.969 0.504
-5.773 -6.128 0.358
-5.773 -6.128 0.358
-5.773 -6.128 0.358
-5.903 -6.154 0.255
-5.624 -5.889 0.267
-5.721 -5.898 0.180
-5.178 -5.645 0.471
-5.184 -5.635 0.455
-5.184 -5.635 0.455
-5.617 -5.968 0.355
-5.795 -6.161 0.370
-5.795 -6.161 0.370
-5.562 -6.016 0.457
-5.911 -6.149 0.241
-5.562 -6.016 0.457
-4.614 -5.141 0.530
-4.614 -5.141 0.530
-5.617 -5.968 0.355
-5.773 -6.128 0.358
-5.902 -6.154 0.255
-5.562 -6.016 0.457
-5.562 -6.016 0.457
-5.562 -6.016 0.457
-5.902 -6.154 0.255
-5.795 -6.161 0.370
-5.562 -6.016 0.457
-5.604 -6.116 0.515
-5.562 -6.016 0.457
-5.902 -6.154 0.255
-4.653 -4.722 0.072
-5.773 -6.128 0.358
-5.184 -5.635 0.455
-4.642 -4.892 0.254
-5.562 -6.016 0.457
-5.624 -5.889 0.267
-5.902 -6.154 0.255
-5.725 -5.893 0.170
-4.867 -5.099 0.236
-5.905 -6.153 0.251
-5.788 -6.124 0.340
-5.629 -5.883 0.256
-5.629 -5.883 0.256
-5.574 -6.015 0.444
-5.574 -6.015 0.444
-5.574 -6.015 0.444
-5.574 -6.015 0.444
-4.824 -4.874 0.054
-5.613 -5.966 0.357
-4.658 -4.989 0.335
-4.658 -4.989 0.335
-5.175 -5.640 0.468
-4.824 -4.874 0.054
-5.905 -6.153 0.251
-5.976 -6.157 0.184
-5.954 -6.249 0.298
-5.605 -6.116 0.514
-5.605 -6.116 0.514
-5.912 -6.149 0.240
-5.912 -6.149 0.240
-5.178 -5.647 0.473
-5.795 -6.161 0.369
-5.624 -5.889 0.267
-5.565 -6.016 0.454
-4.635 -4.822 0.191
-5.565 -6.016 0.454
-4.635 -4.822 0.191
-4.652 -4.723 0.074
-5.378 -6.010 0.635
-4.659 -4.989 0.334
-4.671 -5.183 0.515
-5.856 -6.156 0.302
-4.484 -4.632 0.152
-5.565 -6.016 0.453
-4.643 -4.892 0.252
-4.643 -4.892 0.252
-5.903 -6.154 0.255
-5.857 -6.133 0.278
-5.675 -5.893 0.220
-5.675 -5.893 0.220
-5.565 -6.016 0.453
-5.615 -5.968 0.357
-5.565 -6.016 0.453
-5.903 -6.154 0.255
-5.565 -6.016 0.453
-5.565 -6.016 0.453
-5.615 -5.968 0.357
-5.903 -6.154 0.255
-4.642 -4.892 0.254
-4.819 -4.875 0.059
-4.652 -4.723 0.074
-4.635 -4.822 0.191
-5.903 -6.154 0.255
-5.624 -5.889 0.267
-4.635 -4.822 0.191
-5.565 -6.016 0.453
-5.565 -6.016 0.453
-5.565 -6.016 0.453
-5.184 -5.637 0.456
-5.565 -6.016 0.453
-4.776 -5.157 0.385
-4.635 -4.822 0.191
-5.775 -6.128 0.356
-4.807 -4.908 0.105
-5.795 -6.161 0.369
-5.178 -5.647 0.473
-4.807 -4.908 0.105
-4.810 -5.051 0.244
-5.903 -6.154 0.255
-4.642 -4.892 0.254
-4.652 -4.723 0.074
-5.857 -6.133 0.279
-4.635 -4.822 0.191
-5.610 -5.883 0.276
-5.900 -6.155 0.258
-4.699 -4.890 0.195
-5.562 -6.016 0.457
-4.636 -4.822 0.190
-5.642 -6.015 0.375
-4.636 -4.822 0.190
-4.636 -4.822 0.190
-4.636 -4.822 0.190
-5.642 -6.015 0.375
-5.177 -5.648 0.474
-4.652 -4.723 0.074
-5.900 -6.155 0.258
-5.792 -6.161 0.372
-4.484 -4.632 0.151
-5.612 -5.968 0.360
-4.636 -4.822 0.190
-4.777 -5.157 0.384
-5.182 -5.637 0.459
-4.777 -5.157 0.384
-5.792 -6.161 0.372
-5.562 -6.016 0.457
-4.557 -5.430 0.874
-5.771 -6.128 0.360
-5.182 -5.637 0.459
-5.612 -5.968 0.360
-4.819 -4.875 0.059
-5.612 -5.968 0.360
-5.622 -5.889 0.269
-4.777 -5.157 0.384
-4.652 -4.723 0.074
-4.652 -4.723 0.074
-4.777 -5.157 0.384
-5.900 -6.155 0.258
-5.622 -5.889 0.269
-4.484 -4.632 0.151
-5.771 -6.128 0.360
-5.182 -5.637 0.459
-4.652 -4.723 0.074
-4.807 -4.908 0.105
-5.771 -6.128 0.360
-5.612 -5.968 0.360
-5.562 -6.016 0.457
-4.484 -4.632 0.151
-4.484 -4.632 0.151
-4.484 -4.632 0.151
-5.900 -6.155 0.258
-4.484 -4.632 0.151
-5.177 -5.648 0.475
-5.792 -6.161 0.372
-4.652 -4.723 0.074
-5.909 -6.150 0.244
-4.659 -4.989 0.334
-5.177 -5.648 0.475
-6.144 -6.264 0.123
-5.900 -6.155 0.258
-4.652 -4.723 0.074
-4.811 -5.050 0.244
-5.900 -6.155 0.258
-5.900 -6.155 0.258
-4.777 -5.157 0.384
-5.182 -5.637 0.459
-5.900 -6.155 0.258
-5.685 -6.117 0.435
-5.673 -5.893 0.222
-4.419 -4.761 0.346
-5.960 -6.157 0.201
-5.622 -5.889 0.269
-4.641 -4.892 0.255
-5.793 -6.161 0.372
-5.772 -6.128 0.359
-5.772 -6.128 0.359
-5.622 -5.889 0.269
-5.772 -6.128 0.359
-6.144 -6.263 0.122
-5.177 -5.648 0.474
-5.674 -5.893 0.221
-5.177 -5.647 0.474
-5.772 -6.128 0.359
-5.182 -5.637 0.458
-5.655 -6.124 0.472
-4.484 -4.632 0.151
-5.855 -6.133 0.281
-6.217 -6.272 0.059
-4.636 -4.822 0.190
-4.652 -4.723 0.074
-6.144 -6.263 0.122
-4.652 -4.723 0.074
-4.557 -5.430 0.874
-5.562 -6.016 0.457
-5.718 -5.898 0.182
-4.819 -4.875 0.059
-6.215 -6.270 0.058
-5.642 -6.015 0.375
-4.652 -4.723 0.074
-5.364 -5.625 0.264
-5.348 -5.815 0.470
-5.329 -5.621 0.295
-5.570 -5.731 0.164
-5.570 -5.731 0.164
-5.570 -5.731 0.164
-5.570 -5.731 0.164
-5.610 -5.847 0.240
-5.329 -5.621 0.295
-5.610 -5.847 0.240
-5.610 -5.847 0.240
-5.351 -4.910 -0.441
-5.324 -5.516 0.194
-5.328 -5.622 0.296
-5.559 -5.790 0.234
-5.610 -5.847 0.241
-5.610 -5.847 0.241
-5.692 -5.208 -0.482
-5.328 -5.622 0.296
-5.569 -5.731 0.165
-5.569 -5.731 0.165
-5.569 -5.731 0.165
-5.328 -5.622 0.296
-5.610 -5.847 0.241
-5.610 -5.847 0.241
-5.569 -5.731 0.165
-5.569 -5.731 0.165
-5.610 -5.847 0.241
-5.610 -5.847 0.241
-5.617 -5.847 0.234
-5.617 -5.847 0.234
-5.617 -5.847 0.234
-5.569 -5.731 0.165
-5.351 -4.910 -0.441
-5.589 -5.663 0.078
-5.336 -5.621 0.289
-5.568 -5.790 0.225
-5.371 -4.900 -0.468
-5.324 -5.516 0.194
-5.361 -5.514 0.156
-5.575 -5.730 0.159
-6.646 -6.454 -0.192
-5.557 -5.790 0.235
-5.351 -4.910 -0.441
-5.608 -5.847 0.243
-5.321 -5.516 0.197
-5.399 -5.842 0.446
-5.616 -5.847 0.234
-5.577 -5.730 0.157
-5.198 -5.713 0.518
-5.577 -5.730 0.157
-5.570 -5.731 0.165
-5.559 -5.789 0.234
-5.577 -5.730 0.157
-5.610 -5.847 0.241
-5.276 -5.813 0.541
-4.956 -6.117 1.152
-5.400 -5.842 0.446
-5.433 -5.107 -0.323
-4.803 -6.146 1.338
-5.323 -5.516 0.195
-5.559 -5.789 0.234