-12.870 -12.767 -0.107
-12.386 -12.217 -0.082
-12.395 -12.264 -0.216
-12.386 -12.218 -0.081
-12.270 -12.201 0.019
-11.122 -10.875 -0.148
-11.122 -10.876 -0.148
-12.388 -12.216 -0.084
-11.693 -11.584 0.004
-11.072 -10.869 -0.107
-12.262 -12.247 -0.096
-11.951 -11.467 -0.369
-12.343 -12.134 -0.267
-11.140 -10.789 -0.256
-12.353 -12.075 -0.189
-11.198 -10.788 -0.314
-12.756 -12.193 -0.437
-12.743 -12.326 -0.289
-12.739 -12.327 -0.285
-12.739 -12.326 -0.285
-12.388 -12.216 -0.084
-10.963 -11.626 0.758
-11.951 -11.466 -0.371
-11.140 -10.790 -0.256
-12.343 -12.134 -0.267
-11.761 -11.478 -0.265
-13.150 -12.600 -0.506
-13.242 -12.557 -0.594
-12.739 -12.326 -0.285
-12.388 -12.216 -0.085
-12.388 -12.216 -0.085
-12.388 -12.216 -0.085
-13.166 -12.602 -0.521
-12.343 -12.134 -0.266
-12.320 -12.152 -0.246
-10.956 -10.533 -0.309
-10.906 -11.455 0.136
-11.198 -10.788 -0.313
-12.349 -12.077 -0.182
-12.349 -12.077 -0.183
-13.254 -12.618 -0.588
-11.575 -11.262 -0.242
-12.297 -12.143 -0.223
-10.418 -10.729 0.422
-11.139 -10.791 -0.254
-11.197 -10.789 -0.312
-9.838 -10.147 0.146
-12.359 -12.072 -0.199
-10.671 -10.602 -0.140
-11.703 -12.108 0.490
-12.297 -12.143 -0.223
-12.297 -12.143 -0.223
-11.729 -11.659 0.053
-12.342 -12.135 -0.265
-11.197 -10.789 -0.312
-12.349 -12.077 -0.183
-13.249 -12.554 -0.604
-12.349 -12.077 -0.182
-12.342 -12.135 -0.265
-12.297 -12.143 -0.224
-10.379 -10.650 0.220
-13.265 -12.619 -0.599
-10.819 -11.211 0.451
-12.349 -12.078 -0.182
-12.353 -12.075 -0.189
-11.404 -11.785 0.452
-11.180 -10.803 -0.279
-13.120 -12.616 -0.460
-11.932 -12.170 0.157
-12.739 -12.327 -0.284
-11.905 -12.438 0.537
-12.280 -12.239 -0.103
-13.166 -12.602 -0.521
-12.349 -12.079 -0.181
-10.547 -10.476 -0.089
-12.743 -12.326 -0.289
-11.579 -11.505 -0.079
-11.951 -11.466 -0.370
-11.761 -11.460 -0.268
-11.577 -11.510 -0.076
-13.166 -12.602 -0.521
-11.198 -10.788 -0.313
-12.298 -12.143 -0.224
-10.474 -10.719 0.100
-13.249 -12.554 -0.604
-11.653 -11.533 -0.007
-12.760 -12.193 -0.441
-10.044 -10.384 0.396
-12.756 -12.193 -0.436
-10.906 -11.456 0.136
-12.990 -12.560 -0.352
-11.727 -10.973 -0.634
-12.739 -12.326 -0.284
-11.951 -11.466 -0.371
-11.392 -11.274 -0.042
-12.388 -12.216 -0.084
-11.911 -12.247 0.270
-12.375 -12.253 -0.197
-12.398 -12.262 -0.220
-12.201 -12.215 0.103
-12.233 -12.250 -0.057
-11.413 -11.699 0.336
-13.299 -12.580 -0.605
-11.727 -10.973 -0.634
-10.901 -11.198 0.405
-11.404 -11.785 0.452
-12.325 -12.150 -0.232
-12.337 -12.082 -0.166
-11.074 -10.921 -0.084
-11.544 -12.267 0.783
-13.269 -12.620 -0.601
-10.888 -10.851 -0.133
-11.573 -11.263 -0.239
-11.693 -11.584 0.004
-12.738 -12.325 -0.285
-10.907 -11.452 0.138
-12.154 -12.070 0.007
-12.730 -11.680 -1.125
-11.577 -11.509 -0.077
-13.254 -12.618 -0.587
-11.575 -11.262 -0.243
-11.187 -10.790 -0.301
-10.421 -10.753 0.458
-13.242 -12.557 -0.594
-9.137 -9.519 0.470
-11.970 -12.138 0.107
-11.569 -11.264 -0.241
-13.289 -12.580 -0.594
-12.728 -12.188 -0.413
-10.908 -11.454 0.134
-12.016 -11.786 -0.118
-11.928 -12.145 0.145
-11.140 -10.791 -0.256
-12.297 -12.143 -0.224
-11.577 -11.509 -0.076
-12.310 -12.148 -0.237
-11.575 -11.262 -0.243
-8.748 -9.501 0.821
-11.404 -11.786 0.453
-9.044 -9.345 0.331
-11.308 -12.405 1.084
-12.280 -12.158 -0.193
-12.337 -12.083 -0.167
-13.300 -12.580 -0.606
-11.406 -11.787 0.451
-13.250 -12.554 -0.604
-12.741 -12.327 -0.287
-12.769 -12.756 -0.011
-11.761 -11.481 -0.265
-13.167 -12.602 -0.522
-12.297 -12.143 -0.226
-13.255 -12.617 -0.589
-11.578 -11.498 -0.078
-11.761 -11.466 -0.267
-12.297 -12.143 -0.225
-13.301 -12.580 -0.606
-13.251 -12.616 -0.588
-11.141 -10.791 -0.256
-12.158 -12.072 0.005
-11.271 -11.661 0.340
-11.197 -10.877 -0.222
-12.769 -12.749 -0.026
-12.256 -12.193 0.024
-11.425 -12.159 0.773
-12.373 -12.079 -0.206
-12.349 -12.077 -0.184
-9.837 -10.148 0.147
-12.727 -12.189 -0.411
-11.187 -10.790 -0.301
-11.761 -11.466 -0.267
-12.761 -12.192 -0.443
-11.571 -11.505 -0.073
-11.594 -11.484 -0.036
-12.761 -12.192 -0.443
-11.671 -12.089 0.500
-10.738 -11.294 0.638
-12.349 -12.076 -0.184
-12.318 -12.153 -0.246
-12.318 -12.153 -0.246
-11.948 -12.156 0.126
-11.140 -10.791 -0.255
-12.296 -12.144 -0.224
-11.140 -10.791 -0.255
-11.148 -11.679 0.608
-13.302 -12.581 -0.606
-11.786 -11.483 -0.291
-12.162 -12.224 0.177
-13.168 -12.603 -0.522
-10.926 -11.452 0.114
-10.632 -10.745 0.247
-11.569 -11.264 -0.240
-13.166 -12.602 -0.521
-13.166 -12.602 -0.521
-12.382 -12.076 -0.219
-10.951 -11.458 0.102
-11.195 -10.877 -0.221
-10.931 -11.626 0.686
-12.233 -12.249 -0.058
-11.141 -11.717 0.692
-12.392 -12.214 -0.090
-12.375 -12.253 -0.197
-8.732 -9.502 0.837
-11.867 -12.255 0.311
-11.569 -11.264 -0.240
-11.948 -12.155 0.126
-12.172 -12.067 -0.014
-12.160 -12.075 0.005
-11.139 -10.791 -0.254
-11.972 -12.137 0.107
-13.166 -12.602 -0.521
-10.771 -10.815 0.115
-12.170 -12.066 -0.013
-12.016 -11.786 -0.118
-10.234 -10.532 0.391
-13.166 -12.602 -0.521
-11.819 -11.486 -0.262
-13.151 -12.599 -0.507
-10.771 -10.820 0.114
-12.382 -12.078 -0.215
-13.249 -12.617 -0.584
-10.711 -10.951 0.057
-11.404 -11.785 0.452
-12.280 -12.158 -0.191
-10.553 -10.823 0.210
-10.906 -11.458 0.142
-13.241 -12.557 -0.593
-12.015 -11.786 -0.118
-12.728 -12.189 -0.413
-13.166 -12.602 -0.521
-13.265 -12.619 -0.599
-10.545 -11.463 0.472
-13.014 -12.568 -0.358
-12.349 -12.077 -0.183
-11.927 -12.143 0.145
-12.760 -12.490 -0.339
-11.578 -11.497 -0.078
-11.440 -11.260 -0.089
-12.297 -12.143 -0.224
-10.421 -10.611 0.299
-11.805 -11.483 -0.253
-11.447 -11.705 0.373
-13.166 -12.602 -0.521
-11.972 -12.137 0.106
-10.818 -10.558 -0.270
-11.576 -11.512 -0.075
-11.139 -10.791 -0.254
-12.742 -12.325 -0.289
-12.726 -12.326 -0.271
-11.063 -10.879 -0.088
-11.866 -12.256 0.313
-12.375 -12.253 -0.197
-11.867 -12.257 0.311
-10.906 -11.452 0.139
-12.724 -12.189 -0.409
-12.175 -12.232 0.171
-10.435 -10.751 0.425
-11.174 -12.145 1.008
-13.021 -12.569 -0.366
-11.405 -11.295 -0.037
-11.852 -11.851 0.058
-11.185 -10.790 -0.300
-13.253 -12.618 -0.586
-11.727 -10.973 -0.634
-12.382 -12.077 -0.216
-11.578 -11.509 -0.077
-13.241 -12.557 -0.594
-11.802 -11.478 -0.256
-11.576 -11.262 -0.244
-11.703 -12.108 0.490
-11.459 -11.729 0.386
-11.778 -11.485 -0.282
-12.743 -12.326 -0.289
-12.372 -12.081 -0.204
-10.775 -11.370 0.540
-12.743 -12.326 -0.289
-11.939 -11.466 -0.358
-11.222 -12.123 0.968
-11.569 -11.264 -0.240
-12.297 -12.143 -0.223
-11.813 -11.444 -0.292
-10.830 -11.204 0.433
-11.774 -11.491 -0.278
-11.778 -11.470 -0.283
-11.577 -11.507 -0.077
-10.770 -10.816 0.116
-11.811 -11.444 -0.289
-12.301 -12.140 -0.230
-11.953 -12.153 0.120
-11.777 -11.492 -0.281
-9.064 -9.990 0.938
-11.440 -11.255 -0.091
-11.703 -12.108 0.490
-12.742 -12.326 -0.288
-10.874 -11.322 0.468
-11.811 -11.444 -0.288
-11.813 -11.979 0.128
-13.166 -12.602 -0.521
-12.743 -12.194 -0.423
-12.172 -12.067 -0.015
-13.265 -12.619 -0.599
-12.743 -12.194 -0.423
-11.849 -12.115 0.352
-11.703 -12.108 0.490
-12.930 -12.614 -0.290
-13.166 -12.602 -0.521
-11.377 -12.389 1.001
-11.576 -11.262 -0.245
-10.770 -10.816 0.115
-12.160 -12.075 0.005
-9.064 -9.990 0.938
-10.830 -11.205 0.436
-11.778 -11.479 -0.283
-10.512 -11.235 0.821
-12.726 -12.327 -0.271
-11.812 -11.444 -0.289
-12.161 -12.074 0.004
-9.043 -9.994 0.960
-11.440 -11.262 -0.103
-11.904 -12.071 0.059
-11.473 -11.708 0.353
-11.579 -11.509 -0.079
-10.538 -11.459 0.477
-11.948 -12.155 0.126
-11.824 -11.449 -0.299
-12.729 -12.189 -0.414
-13.265 -12.619 -0.599
-11.778 -11.472 -0.283
-11.551 -11.424 -0.011
-10.551 -11.470 0.471
-10.949 -11.357 0.531
-9.743 -10.435 0.752
-11.569 -11.264 -0.240
-10.851 -11.189 0.358
-11.577 -11.508 -0.077
-13.013 -12.568 -0.357
-11.760 -11.506 -0.260
-10.032 -10.972 1.010
-11.575 -11.262 -0.243
-11.539 -11.644 -0.063
-12.757 -12.192 -0.440
-10.768 -11.215 0.522
-11.148 -12.142 1.046
-13.151 -12.601 -0.505
-10.544 -11.462 0.472
-12.711 -12.190 -0.395
-11.939 -11.466 -0.358
-13.255 -12.617 -0.589
-12.169 -12.067 -0.013
-13.301 -12.580 -0.606
-10.770 -10.816 0.115
-12.743 -12.193 -0.423
-11.528 -11.537 0.059
-11.949 -11.465 -0.369
-13.266 -12.620 -0.600
-12.158 -12.074 0.007
-11.260 -11.595 0.315
-11.575 -11.262 -0.243
-11.530 -11.535 0.054
-11.139 -10.791 -0.254
-8.659 -10.162 1.578
-11.890 -11.681 -0.088
-11.811 -11.442 -0.289
-10.426 -11.348 0.929
-10.906 -11.448 0.137
-11.949 -11.465 -0.369
-13.265 -12.619 -0.599
-11.900 -12.163 0.193
-11.873 -11.966 0.167
-11.685 -11.320 -0.241
-12.386 -12.217 -0.082
-13.427 -12.268 -1.055
-13.230 -12.117 -1.014
-11.340 -12.225 0.925
-11.246 -12.414 1.206
-11.246 -12.417 1.205
-11.860 -11.815 0.020
-11.691 -11.865 0.271
-11.691 -11.865 0.271
-11.246 -12.412 1.201
-11.141 -12.638 1.550
-11.612 -12.088 0.438
-11.331 -11.814 0.413
-11.546 -11.820 0.304
-11.078 -12.643 1.619
-10.359 -11.300 0.916
-11.246 -12.410 1.199
-9.675 -11.272 1.588
-11.151 -12.409 1.309
-11.883 -11.793 0.003
-11.151 -12.409 1.308
-11.860 -11.815 0.020
-11.564 -11.862 0.242
-11.691 -11.865 0.271
-11.262 -11.652 0.471
-11.329 -11.798 0.403
-11.246 -12.406 1.195
-11.246 -12.409 1.198
-11.262 -11.653 0.473
-11.078 -12.643 1.619
-12.879 -12.815 -0.024
-11.564 -11.862 0.242
-11.249 -12.404 1.191
-10.863 -12.233 1.294
-11.288 -12.081 0.767
-10.732 -11.923 1.105
-11.183 -12.130 0.996
-11.151 -12.407 1.307
-11.564 -11.862 0.242
-11.321 -11.897 0.483
-11.151 -12.408 1.308
-11.151 -12.408 1.309
-11.564 -11.863 0.242
-10.834 -12.208 1.415
-11.198 -12.054 0.904
-10.834 -12.188 1.397
-11.558 -11.862 0.249
-11.151 -12.408 1.308
-11.311 -11.911 0.696
-11.079 -12.644 1.618
-10.714 -12.243 1.452
-9.752 -11.444 1.619
-11.328 -11.814 0.415
-11.891 -11.735 -0.040
-10.466 -11.022 0.269
-10.111 -11.423 1.344
-11.898 -11.807 -0.005
-9.751 -11.398 1.571
-10.719 -11.927 1.120
-10.944 -12.027 1.007
-11.564 -11.863 0.243
-11.151 -12.407 1.307
-10.522 -12.773 1.755
-11.245 -12.420 1.211
-10.724 -11.799 1.003
-10.828 -12.208 1.422
-11.858 -11.816 0.023
-10.944 -12.027 1.008
-11.313 -11.901 0.687
-11.900 -11.784 -0.022
-10.830 -12.204 1.417
-10.101 -12.216 2.195
-10.722 -11.810 1.012
-11.973 -12.017 0.127
-10.719 -11.903 1.101
-11.323 -11.833 0.437
-10.943 -12.031 1.008
-11.151 -12.408 1.308
-11.151 -12.408 1.308
-10.943 -12.029 1.008
-11.899 -11.795 -0.014
-11.127 -12.636 1.569
-11.313 -11.902 0.687
-10.829 -12.213 1.424
-10.081 -11.875 1.828
-11.151 -12.407 1.308
-10.719 -12.244 1.448
-11.151 -12.407 1.307
-10.943 -12.027 1.007
-11.882 -11.719 -0.070
-10.943 -12.029 1.009
-12.804 -12.999 0.233
-11.079 -12.644 1.618
-11.079 -11.891 0.837
-10.830 -12.174 1.388
-11.900 -11.791 -0.019
-11.151 -12.409 1.310
-10.944 -12.029 1.008
-10.932 -12.026 1.023
-10.722 -11.810 1.015
-11.900 -11.778 -0.027
-10.721 -11.808 1.014
-10.944 -12.028 1.008
-10.494 -12.027 1.598
-12.288 -12.801 0.506
-10.944 -12.029 1.008
-10.719 -11.921 1.116
-9.879 -11.516 1.613
-10.109 -11.418 1.340
-10.721 -11.800 1.005
-10.721 -11.804 1.007
-10.710 -11.848 1.050
-10.740 -12.243 1.428
-10.944 -12.027 1.007
-11.151 -12.408 1.308
-11.151 -12.406 1.305
-11.151 -12.410 1.309
-10.719 -12.244 1.448
-11.900 -11.791 -0.017
-10.097 -11.918 1.883
-10.722 -11.800 1.010
-10.830 -12.209 1.419
-10.944 -12.028 1.007
-11.142 -12.639 1.549
-10.830 -12.210 1.421
-10.930 -11.315 0.373
-11.151 -12.408 1.307
-12.292 -12.791 0.502
-12.804 -12.999 0.233
-12.046 -12.060 0.025
-11.142 -12.639 1.549
-11.011 -12.497 1.413
-10.992 -11.895 0.822
-10.940 -12.024 1.014
-10.867 -11.919 1.063
-11.564 -11.862 0.242
-10.935 -11.985 1.014
-12.804 -12.999 0.233
-10.944 -12.028 1.007
-10.930 -11.317 0.372
-10.718 -11.802 1.014
-10.825 -12.217 1.436
-10.718 -11.806 1.015
-10.722 -11.807 1.006
-10.944 -12.029 1.008
-10.110 -11.436 1.363
-10.716 -11.814 1.022
-10.093 -11.669 1.645
-10.795 -12.157 1.403
-10.930 -11.315 0.372
-10.318 -12.539 2.264
-10.873 -11.015 0.159
-9.875 -11.508 1.586
-10.830 -12.179 1.392
-10.713 -11.958 1.162
-10.930 -12.011 1.022
-11.896 -11.798 -0.023
-10.944 -12.029 1.008
-10.671 -11.914 1.277
-10.725 -11.799 1.007
-10.186 -11.285 1.161
-10.108 -11.419 1.344
-10.719 -11.912 1.107
-10.944 -12.030 1.007
-11.260 -11.653 0.476
-10.831 -12.205 1.415
-11.313 -11.900 0.685
-10.537 -11.566 1.045
-10.725 -11.806 1.007
-11.151 -12.408 1.308
-10.109 -11.431 1.358
-11.142 -12.638 1.549
-10.461 -11.023 0.275
-10.944 -12.031 1.008
-11.541 -11.820 0.309
-10.722 -11.805 1.011
-10.739 -11.798 0.992
-10.722 -11.798 1.010
-10.722 -11.805 1.009
-9.695 -11.306 1.629
-11.124 -12.744 1.674
-10.427 -11.972 1.597
-10.613 -11.877 1.194
-10.145 -11.591 1.490
-11.192 -12.742 1.604
-11.776 -12.505 0.627
-10.703 -12.342 1.680
-11.104 -12.651 1.591
-10.703 -12.348 1.686
-11.228 -12.028 0.739
-10.895 -12.688 1.847
-10.406 -11.032 0.341
-9.088 -10.357 1.361
-10.904 -11.321 0.402
-10.859 -12.008 1.122
-9.721 -11.339 1.597
-10.863 -11.853 0.924
-13.438 -12.265 -1.070
-10.876 -12.055 1.101
-10.714 -12.321 1.637
-10.712 -12.318 1.641
-10.491 -12.749 1.948
-10.874 -12.068 1.106
-10.357 -11.047 0.411
-10.714 -12.319 1.635
-9.971 -11.568 1.564
-9.705 -11.317 1.600
-12.986 -11.748 -1.288
-11.254 -11.875 0.543
-10.814 -12.008 1.118
-9.588 -11.434 1.827
-10.383 -11.662 1.185
-9.648 -10.434 0.870
-10.151 -11.297 1.210
-10.020 -11.296 1.279
-11.255 -11.885 0.553
-9.980 -11.405 1.431
-10.065 -11.736 1.642
-11.872 -11.581 -0.321
-9.641 -11.625 1.902
-10.025 -11.481 1.492
-11.638 -11.877 0.336
-10.881 -12.058 1.100
-10.021 -11.311 1.282
-10.146 -11.613 1.507
-10.933 -11.983 0.959
-11.068 -12.686 1.669
-11.257 -11.840 0.516
-10.664 -11.820 1.090
-11.252 -11.891 0.559
-10.876 -12.038 1.091
-13.438 -12.265 -1.069
-13.438 -12.265 -1.069
-13.438 -12.265 -1.069
-12.016 -12.206 0.272
-11.249 -11.887 0.562
-10.877 -12.046 1.097
-12.182 -11.921 -0.298
-11.144 -12.408 1.315
-11.558 -11.864 0.250
-11.564 -11.864 0.244
-10.873 -11.922 1.035
-10.341 -11.760 1.372
-10.714 -11.935 1.134
-8.684 -10.285 1.677
-9.766 -11.320 1.530
-10.461 -11.017 0.274
-11.080 -12.645 1.619
-9.754 -11.401 1.734
-10.940 -11.314 0.359
-11.314 -11.969 0.528
-10.084 -12.006 1.977
-10.716 -12.278 1.630
-12.125 -12.167 0.091
-10.932 -11.319 0.373
-9.773 -11.349 1.545
-9.215 -10.144 1.004
-9.759 -11.298 1.512
-10.944 -12.029 1.009
-11.144 -12.639 1.549
-11.320 -11.845 0.450
-9.752 -11.326 1.526
-10.939 -11.305 0.336
-9.861 -10.193 0.454
-10.927 -12.391 1.291
-9.863 -10.195 0.453
-12.128 -12.168 0.089
-10.107 -11.456 1.382
-10.932 -11.314 0.368
-11.324 -11.765 0.389
-10.721 -11.919 1.109
-9.902 -11.054 1.220
-10.035 -11.500 1.433
-10.668 -12.125 1.399
-11.551 -11.863 0.257
-10.717 -12.277 1.629
-11.084 -12.329 1.132
-11.307 -11.734 0.376
-10.941 -12.162 1.057
-9.869 -10.194 0.447
-10.232 -11.537 1.350
-9.223 -10.146 0.995
-9.693 -11.077 1.478
-10.110 -11.454 1.381
-10.105 -11.445 1.369
-10.637 -11.381 0.818
-10.108 -11.442 1.370
-9.863 -10.195 0.454
-10.041 -10.792 0.707
-9.388 -10.763 1.503
-9.760 -11.334 1.553
-10.035 -11.500 1.433
-9.762 -11.360 1.559
-11.515 -11.591 0.044
-9.861 -10.194 0.454
-9.759 -11.340 1.542
-10.856 -11.692 0.491
-10.688 -12.247 1.481
-9.867 -10.199 0.454
-10.981 -12.336 1.417
-9.810 -10.029 0.173
-10.588 -12.609 2.088
-10.896 -11.823 0.885
-10.724 -12.142 0.952
-11.066 -10.857 -0.120
-10.752 -12.324 1.687
-9.203 -10.062 0.705
-10.896 -11.823 0.885
-10.488 -10.813 0.417
-9.714 -10.028 0.271
-10.692 -12.332 1.681
-11.002 -11.692 0.528
-10.692 -12.332 1.681
-11.947 -12.154 0.150
-11.053 -12.324 1.267
-10.307 -11.847 1.482
-10.336 -11.987 1.759
-10.940 -11.188 0.242
-11.814 -12.041 0.273
-9.810 -10.029 0.173
-9.810 -10.030 0.174
-11.053 -12.322 1.267
-9.219 -10.060 0.682
-9.219 -10.061 0.682
-10.608 -12.641 2.067
-10.587 -12.644 2.091
-9.218 -10.060 0.683
-10.915 -11.190 0.265
-10.600 -11.996 1.393
-9.142 -10.070 0.936
-10.533 -12.644 2.146
-10.514 -11.778 1.293
-9.714 -10.029 0.272
-9.669 -12.065 2.411
-9.714 -10.028 0.271
-12.454 -12.739 0.377
-9.957 -12.046 2.114
-10.963 -11.711 0.587
-11.183 -11.742 0.405
-9.810 -10.021 0.168
-10.568 -10.965 0.455
-9.810 -10.029 0.173
-10.587 -12.644 2.091
-9.810 -10.030 0.174
-9.810 -10.034 0.179
-9.667 -12.064 2.411
-9.849 -12.090 2.219
-10.395 -11.089 0.776
-11.008 -11.724 0.530
-9.714 -10.028 0.271
-10.476 -11.304 0.749
-11.362 -12.332 0.917
-9.744 -10.901 1.180
-10.801 -12.295 1.071
-9.429 -10.424 1.030
-9.219 -10.060 0.684
-9.589 -10.908 1.235
-10.737 -10.686 -0.201
-11.361 -12.324 0.914
-11.008 -11.724 0.529
-9.260 -9.461 0.265
-10.913 -12.352 1.478
-9.219 -10.067 0.683
-10.437 -11.964 1.639
-9.709 -10.042 0.290
-10.341 -11.101 0.844
-9.162 -9.504 0.418
-9.162 -9.504 0.417
-9.751 -11.087 1.417
-10.521 -12.606 2.153
-10.395 -11.088 0.775
-10.489 -10.812 0.416
-13.858 -13.182 -0.547
-9.849 -12.089 2.217
-10.311 -12.620 2.351
-10.781 -11.704 0.747
-11.026 -11.722 0.516
-9.769 -10.246 0.533
-10.948 -11.190 0.234
-9.216 -10.058 0.686
-10.631 -13.346 2.741
-9.161 -9.419 0.322
-10.019 -11.490 1.484
-10.781 -11.705 0.747
-10.948 -11.188 0.233
-10.825 -11.361 0.598
-9.852 -12.092 2.217
-11.062 -11.837 0.723
-9.261 -9.462 0.264
-9.492 -10.719 1.233
-9.161 -9.419 0.321
-9.995 -11.095 1.178
-10.781 -11.705 0.747
-9.200 -10.061 0.703
-9.717 -10.030 0.268
-11.042 -11.709 0.504
-13.857 -13.182 -0.544
-10.521 -12.607 2.154
-10.188 -12.719 2.636
-9.167 -9.500 0.408
-9.129 -9.807 0.435
-10.924 -11.191 0.256
-10.781 -11.705 0.746
-10.932 -11.818 0.832
-10.395 -11.088 0.775
-11.457 -12.098 0.721
-9.729 -12.090 2.334
-11.062 -11.837 0.723
-10.827 -12.111 1.440
-10.678 -12.103 0.942
-9.161 -9.419 0.321
-11.055 -12.346 1.357
-10.961 -11.831 0.828
-9.216 -10.059 0.685
-11.041 -11.687 0.499
-9.442 -9.135 -0.231
-9.716 -10.031 0.270
-9.167 -9.500 0.409
-10.568 -10.964 0.455
-11.144 -12.312 1.294
-10.755 -12.323 1.683
-11.898 -12.207 0.398
-11.325 -12.314 0.977
-10.460 -11.950 1.602
-9.668 -12.065 2.408
-10.600 -11.995 1.392
-9.191 -10.063 0.718
-9.442 -9.136 -0.230
-10.392 -11.089 0.780
-10.390 -11.088 0.778
-9.848 -12.090 2.219
-10.550 -10.965 0.473
-10.813 -12.310 1.051
-11.042 -11.696 0.501
-10.521 -12.608 2.156
-11.025 -11.719 0.514
-10.392 -11.089 0.780
-10.413 -12.122 1.210
-9.260 -9.461 0.264
-9.160 -9.419 0.322
-10.503 -12.295 1.904
-10.937 -12.251 1.470
-9.716 -10.030 0.270
-9.747 -12.020 2.273
-10.344 -11.831 1.485
-9.080 -9.513 0.524
-11.042 -11.697 0.497
-13.655 -12.900 -0.619
-11.029 -12.302 1.416
-10.521 -12.606 2.154
-11.862 -13.365 1.604
-10.397 -12.053 1.116
-7.662 -9.501 1.954
-10.727 -11.738 0.840
-11.651 -12.338 0.685
-11.074 -12.316 1.171
-10.780 -11.706 0.748
-8.697 -9.463 0.835
-10.710 -13.316 2.651
-10.380 -12.221 1.256
-11.684 -13.601 2.015
-10.768 -11.726 0.770
-11.001 -11.830 0.778
-10.342 -11.843 1.432
-10.353 -11.089 0.818
-10.391 -11.089 0.781
-10.459 -11.979 1.632
-10.780 -11.705 0.748
-10.743 -10.828 0.156
-9.510 -10.717 1.226
-10.460 -11.952 1.605
-11.685 -12.035 0.351
-10.704 -13.542 2.856
-10.018 -12.075 2.039
-9.200 -10.061 0.705
-10.406 -12.241 1.265
-10.780 -11.705 0.748
-10.947 -11.191 0.235
-10.358 -10.602 0.176
-10.318 -11.059 0.535
-10.536 -12.641 2.140
-11.042 -11.712 0.509
-9.167 -9.499 0.408
-10.675 -12.095 0.951
-11.685 -12.036 0.352
-10.418 -11.803 1.484
-11.685 -12.036 0.352
-10.472 -10.814 0.435
-9.065 -9.513 0.539
-10.464 -12.182 1.825
-10.579 -11.208 0.596
-10.311 -12.971 2.749
-9.151 -9.504 0.426
-9.813 -10.032 0.172
-11.103 -12.322 1.199
-9.728 -12.091 2.337
-10.390 -11.089 0.782
-10.677 -12.104 0.944
-10.352 -11.090 0.819
-9.201 -10.059 0.708
-9.156 -9.499 0.419
-11.325 -12.314 0.977
-9.080 -9.513 0.524
-9.167 -9.499 0.408
-10.228 -12.082 1.938
-8.160 -8.894 0.752
-9.716 -10.030 0.270
-11.556 -13.577 2.117
-10.416 -12.143 1.178
-10.460 -11.947 1.600
-10.779 -11.705 0.748
-9.441 -9.136 -0.229
-9.813 -10.031 0.171
-11.157 -11.714 0.404
-7.728 -9.061 1.428
-11.024 -11.840 0.776
-9.228 -10.048 0.827
-11.060 -11.838 0.727
-10.600 -11.992 1.388
-10.412 -12.104 1.232
-8.805 -9.412 0.667
-9.701 -10.028 0.284
-11.862 -13.365 1.604
-9.701 -10.028 0.283
-10.349 -11.219 0.883
-9.937 -11.694 1.821
-9.167 -9.499 0.408
-10.459 -11.930 1.590
-10.406 -12.146 1.304
-8.922 -9.302 0.402
-10.468 -11.950 1.593
-10.931 -11.819 0.834
-10.693 -13.313 2.647
-9.717 -10.030 0.270
-9.152 -9.498 0.421
-11.366 -12.331 0.958
-10.780 -11.702 0.748
-9.701 -10.028 0.283
-10.934 -11.191 0.247
-8.965 -9.017 0.015
-11.884 -12.038 0.193
-9.813 -10.031 0.171
-10.931 -11.820 0.835
-9.442 -9.136 -0.230
-10.710 -11.979 1.391
-9.242 -9.459 0.280
-11.062 -12.336 1.201
-11.948 -12.154 0.148
-10.593 -13.256 2.714
-10.587 -12.012 1.413
-10.585 -12.315 1.843
-11.282 -12.330 1.164
-9.710 -10.040 0.286
-10.939 -11.287 0.421
-9.694 -10.038 0.300
-10.265 -12.046 1.873
-11.028 -11.724 0.532
-10.520 -12.623 2.167
-10.769 -11.717 0.771
-10.925 -11.963 1.042
-12.225 -11.913 -0.303
-11.467 -10.962 -0.438
-11.211 -11.063 -0.142
-12.339 -12.090 -0.242
-13.218 -12.994 -0.183
-10.945 -12.023 1.118
-11.877 -11.586 -0.321
-12.340 -12.090 -0.243
-12.225 -11.914 -0.303
-10.778 -12.047 1.304
-12.023 -12.070 0.061
-11.925 -11.883 -0.027
-12.339 -12.092 -0.241
-12.859 -12.820 0.002
-11.006 -12.453 1.507
-10.156 -11.545 1.464
-12.863 -12.820 -0.002
-11.219 -11.157 -0.132
-11.871 -11.794 0.018
-11.878 -11.794 0.010
-10.156 -11.545 1.465
-11.285 -12.179 0.907
-11.306 -11.322 0.088
-10.948 -11.974 1.065
-10.158 -11.544 1.462
-10.633 -12.073 1.503
-10.740 -12.158 1.434
-11.276 -12.178 0.919
-11.873 -11.621 -0.328
-12.027 -12.070 0.054
-11.882 -11.792 0.004
-11.882 -11.792 0.004
-11.882 -11.792 0.004
-9.188 -11.030 1.888
-12.278 -12.794 0.521
-10.871 -12.585 1.741
-12.004 -12.060 0.076
-10.172 -11.303 1.241
-9.962 -11.290 1.203
-11.527 -11.594 0.033
-13.242 -12.993 -0.208
-11.529 -11.596 0.033
-11.933 -11.830 -0.080
-11.280 -11.512 0.216
-10.745 -12.161 1.430
-10.744 -12.162 1.430
-10.745 -12.161 1.430
-11.947 -11.879 -0.054
-11.500 -11.595 0.066
-12.867 -12.819 -0.008
-10.152 -11.539 1.462
-11.144 -11.321 0.246
-10.224 -11.299 1.185
-12.282 -12.794 0.516
-12.046 -12.071 0.035
-11.450 -10.995 -0.461
-11.287 -11.126 -0.218
-11.893 -11.791 -0.008
-13.241 -12.993 -0.207
-10.840 -12.036 1.242
-10.840 -12.034 1.237
-10.895 -12.599 1.741
-10.199 -11.298 1.208
-10.985 -11.212 0.268
-10.199 -11.298 1.208
-11.221 -12.014 0.737
-11.102 -11.327 0.293
-9.830 -11.249 1.500
-10.818 -11.930 1.048
-10.837 -12.047 1.247
-11.102 -11.327 0.292
-12.067 -12.059 0.004
-9.175 -11.014 1.879
-10.837 -12.038 1.244
-11.977 -11.866 -0.096
-10.838 -12.036 1.241
-11.927 -11.779 -0.055
-12.045 -12.047 0.025
-10.902 -12.583 1.708
-9.988 -11.303 1.417
-9.830 -11.253 1.503
-11.967 -11.799 -0.126
-11.978 -11.866 -0.097
-10.837 -12.029 1.235
-10.209 -11.043 0.893
-11.471 -11.657 0.153
-9.895 -11.402 1.530
-11.518 -11.586 0.036
-10.243 -11.284 1.152
-10.031 -11.284 1.256
-10.293 -10.699 0.505
-9.057 -10.932 1.968
-11.910 -11.802 -0.031
-10.435 -11.658 1.110
-10.066 -11.402 1.415
-10.838 -12.038 1.243
-10.837 -12.019 1.226
-9.308 -10.814 1.542
-10.181 -11.537 1.431
-11.140 -12.429 1.350
-10.509 -11.549 0.998
-11.513 -11.597 0.048
-11.127 -11.897 0.868
-11.489 -11.593 0.075
-9.660 -11.140 1.511
-10.838 -12.042 1.246
-9.307 -10.810 1.538
-9.327 -10.804 1.514
-10.290 -11.218 1.043
-11.975 -11.866 -0.094
-11.288 -11.064 -0.220
-9.816 -11.451 1.652
-11.904 -11.788 -0.026
-11.131 -11.315 0.252
-9.307 -10.809 1.540
-11.489 -11.602 0.076
-9.758 -10.977 1.289
-10.635 -12.151 1.484
-9.166 -10.144 1.088
-11.131 -11.319 0.255
-10.881 -10.962 0.085
-9.587 -11.179 1.630
-10.838 -12.035 1.240
-10.838 -12.034 1.235
-9.307 -10.815 1.540
-10.775 -12.569 1.821
-10.839 -12.035 1.238
-10.901 -12.582 1.708
-12.059 -12.060 0.013
-10.242 -11.285 1.153
-11.912 -11.780 -0.037
-10.969 -11.164 0.237
-10.817 -11.930 1.047
-11.518 -11.595 0.042
-10.070 -11.259 1.267
-10.900 -12.582 1.709
-10.111 -11.297 1.258
-11.512 -11.596 0.049
-10.211 -11.050 0.897
-11.512 -11.597 0.049
-9.748 -11.008 1.329
-10.900 -12.581 1.708
-10.232 -11.289 1.161
-10.900 -12.581 1.709
-11.917 -11.781 -0.042
-11.131 -11.315 0.251
-9.587 -11.178 1.628
-10.290 -10.378 0.155
-10.206 -11.289 1.192
-11.965 -11.845 -0.119
-10.242 -11.285 1.154
-9.993 -11.298 1.407
-12.292 -12.789 0.501
-10.182 -11.537 1.430
-10.530 -11.507 0.971
-10.836 -12.029 1.235
-11.159 -11.320 0.229
-9.808 -10.663 0.773
-9.829 -11.253 1.504
-10.692 -12.151 1.473
-9.794 -11.518 1.801
-10.065 -11.271 1.282
-10.435 -11.659 1.109
-10.033 -11.286 1.256
-9.680 -10.412 0.706
-10.838 -12.042 1.249
-10.031 -11.282 1.254
-9.408 -10.960 1.584
-10.837 -12.035 1.241
-10.161 -11.553 1.467
-10.522 -10.760 0.332
-9.416 -10.960 1.576
-10.220 -11.303 1.192
-10.999 -11.996 1.039
-10.072 -11.418 1.406
-9.730 -11.464 1.719
-10.884 -12.590 1.734
-11.924 -11.897 -0.043
-12.333 -12.080 -0.235
-11.119 -11.312 0.258
-10.195 -11.299 1.212
-9.408 -10.960 1.585
-9.592 -11.181 1.627
-12.028 -12.058 0.051
-9.738 -11.436 1.653
-10.031 -11.286 1.256
-10.310 -10.439 0.159
-10.153 -11.538 1.461
-10.898 -12.561 1.698
-11.055 -11.193 0.200
-11.956 -11.878 -0.064
-10.046 -11.307 1.331
-11.890 -11.582 -0.340
-10.057 -11.025 1.124
-9.650 -11.582 1.953
-9.173 -11.019 1.888
-9.654 -10.453 0.809
-9.638 -10.440 0.887
-12.036 -12.070 0.044
-9.665 -11.150 1.518
-12.049 -12.069 0.030
-11.525 -11.597 0.036
-12.042 -12.069 0.039
-11.525 -11.597 0.036
-10.993 -11.947 0.967
-11.106 -12.591 1.515
-12.804 -13.006 0.240
-12.050 -12.069 0.029
-12.050 -12.069 0.029
-10.031 -11.283 1.254
-12.591 -11.881 -0.608
-12.044 -12.050 0.027
-10.908 -11.312 0.389
-10.175 -11.539 1.438
-10.906 -12.580 1.695
-11.291 -11.081 -0.246
-9.740 -11.431 1.647
-9.703 -11.333 1.560
-9.151 -10.675 1.481
-12.044 -12.050 0.026
-10.092 -11.428 1.346
-12.065 -12.062 0.006
-10.831 -12.027 1.238
-12.044 -12.050 0.027
-9.725 -11.437 1.667
-11.112 -12.592 1.510
-12.073 -12.061 -0.003
-10.313 -10.438 0.154
-10.439 -10.760 0.412
-8.991 -10.819 1.839
-9.955 -11.380 0.927
-12.291 -12.793 0.506
-12.073 -12.061 -0.003
-10.313 -10.438 0.155
-11.915 -11.087 -0.929
-11.877 -9.265 -2.552
-11.075 -10.599 -0.384
-11.446 -10.909 -0.465
-12.091 -9.245 -2.698
-12.034 -9.300 -2.673
-11.242 -10.715 -0.444
-10.575 -10.997 0.453
-11.727 -9.301 -2.367
-11.048 -10.614 -0.343
-11.722 -9.763 -1.794
-12.036 -9.299 -2.675
-12.418 -9.966 -2.371
-11.726 -9.301 -2.366
-12.419 -9.965 -2.372
-12.403 -9.258 -3.002
-11.146 -9.938 -2.400
-11.953 -12.116 0.255
-11.915 -9.250 -2.604
-7.182 -8.547 1.344
-12.241 -9.201 -2.893
-11.981 -9.275 -2.645
-12.004 -9.747 -2.077
-12.439 -10.775 -1.582
-12.479 -12.230 -0.169
-12.479 -12.229 -0.169
-13.779 -12.159 -1.524
-11.770 -12.943 1.233
-12.629 -9.947 -2.464
-10.649 -9.869 -0.881
-10.627 -10.865 0.184
-11.543 -9.257 -2.665
-11.045 -11.070 0.079
-11.963 -9.308 -2.594
-10.493 -9.836 -0.748
-10.515 -10.840 0.288
-11.040 -10.613 -0.337
-10.584 -10.594 0.032
-11.040 -10.612 -0.337
-13.779 -12.158 -1.525
-11.048 -10.612 -0.343
-13.779 -12.158 -1.524
-11.967 -10.011 -1.887
-10.943 -10.619 -0.253
-11.664 -9.837 -2.701
-11.989 -9.746 -2.059
-9.736 -10.637 0.942
-13.085 -13.115 -0.348
-11.910 -9.252 -2.598
-11.279 -9.829 -1.700
-12.216 -9.855 -2.277
-12.183 -9.839 -2.261
-11.709 -9.252 -2.398
-12.272 -9.209 -2.919
-11.775 -9.769 -1.825
-12.236 -9.202 -2.888
-12.219 -9.853 -2.282
-12.251 -12.191 0.007
-10.618 -9.870 -0.858
-12.251 -12.191 0.007
-11.093 -10.561 -0.439
-11.963 -9.257 -2.645
-11.093 -10.562 -0.438
-8.999 -10.048 1.103
-8.507 -9.637 1.197
-11.434 -10.598 -0.905
-12.274 -9.208 -2.921
-11.179 -9.839 -2.225
-9.486 -10.678 1.267
-12.251 -12.191 0.008
-13.474 -13.165 -0.258
-12.873 -13.044 -0.040
-9.809 -10.627 0.859
-11.093 -10.562 -0.438
-8.426 -10.011 1.615
-7.333 -8.542 1.192
-12.005 -9.718 -2.100
-12.440 -10.778 -1.579
-9.845 -10.633 0.841
-11.374 -10.987 -0.385
-8.168 -8.987 0.865
-12.237 -9.202 -2.889
-12.248 -12.188 0.007
-13.496 -13.547 0.174
-11.997 -9.757 -2.056
-12.436 -9.232 -3.061
-12.431 -10.762 -1.590
-10.682 -10.414 -0.221
-10.481 -10.632 0.166
-12.737 -13.055 0.074
-13.803 -13.560 -0.132
-12.431 -10.774 -1.577
-12.183 -9.838 -2.261
-12.016 -9.196 -2.672
-13.748 -13.569 -0.112
-11.706 -9.252 -2.396
-12.414 -9.896 -2.450
-12.432 -9.233 -3.056
-13.805 -13.559 -0.134
-12.180 -9.839 -2.257
-15.294 -15.649 0.378
-9.089 -10.777 1.712
-15.295 -15.649 0.378
-7.182 -8.549 1.348
-9.089 -10.776 1.712
-13.606 -13.557 0.076
-12.215 -9.854 -2.277
-11.092 -10.561 -0.438
-11.092 -10.561 -0.438
-11.435 -10.598 -0.905
-12.218 -9.850 -2.286
-11.910 -9.252 -2.598
-11.910 -9.250 -2.599
-10.696 -11.074 0.444
-7.341 -8.542 1.205
-12.217 -9.853 -2.280
-13.492 -13.548 0.181
-12.413 -9.868 -2.459
-11.054 -9.741 -2.211
-13.195 -13.503 0.412
-8.129 -9.005 0.925
-11.038 -10.613 -0.334
-11.351 -10.980 -0.330
-12.226 -9.203 -2.877
-12.042 -9.204 -2.692
-11.089 -10.562 -0.434
-11.749 -9.258 -2.432
-13.800 -13.564 -0.125
-9.388 -10.971 1.581
-8.154 -8.981 0.868
-11.430 -10.599 -0.900
-12.734 -13.058 0.080
-13.471 -13.164 -0.251
-12.041 -9.204 -2.690
-12.208 -9.855 -2.269
-14.234 -14.998 0.697
-12.208 -9.854 -2.270
-12.510 -12.233 -0.221
-11.432 -11.297 -0.109
-11.168 -9.843 -2.205
-7.341 -8.540 1.200
-12.253 -12.190 0.005
-12.733 -13.045 0.098
-12.479 -12.232 -0.169
-9.388 -10.844 1.491
-12.226 -9.204 -2.877
-11.168 -9.843 -2.206
-11.914 -9.854 -3.078
-9.275 -10.486 1.147
-12.253 -12.190 0.004
-12.253 -12.190 0.005
-12.173 -9.839 -2.251
-11.091 -10.564 -0.434
-9.231 -10.729 1.501
-12.209 -9.853 -2.272
-13.607 -13.558 0.076
-14.686 -14.832 0.191
-12.208 -9.854 -2.270
-8.457 -9.801 1.378
-12.004 -9.199 -2.658
-9.672 -11.651 2.056
-11.571 -10.762 -0.978
-11.571 -10.762 -0.978
-11.571 -10.762 -0.978
-9.708 -12.055 2.414
-10.506 -12.786 1.081
-11.571 -10.762 -0.978
-9.208 -10.070 0.706
-10.787 -10.361 -0.376
-9.833 -10.142 0.140
-11.775 -12.612 0.930
-10.851 -12.814 0.700
-11.351 -10.558 -0.718
-11.351 -10.557 -0.718
-10.782 -10.363 -0.369
-11.632 -12.040 0.407
-11.561 -10.765 -0.962
-10.936 -11.480 0.580
-9.832 -10.143 0.142
-11.843 -10.757 -1.082
-10.780 -10.363 -0.367
-14.958 -14.477 -0.357
-10.444 -11.996 1.537
-10.781 -10.364 -0.368
-10.822 -10.684 -0.281
-11.565 -10.763 -0.967
-11.613 -12.052 0.427
-10.781 -10.364 -0.369
-16.356 -9.228 -7.598
-11.351 -10.558 -0.717
-11.614 -12.052 0.426
-10.513 -11.401 0.932
-10.704 -11.271 0.563
-10.781 -10.363 -0.369