-9.699 -9.674 -0.015
-11.043 -9.923 -1.114
-10.970 -9.938 -1.028
-8.923 -9.573 0.672
-10.626 -9.981 -0.636
-11.042 -9.925 -1.112
-11.173 -10.278 -0.890
-9.645 -10.400 0.743
-10.601 -9.946 -0.650
-11.167 -10.277 -0.886
-11.167 -10.277 -0.886
-10.576 -9.947 -0.625
-7.785 -8.653 0.888
-10.576 -9.947 -0.624
-10.988 -9.935 -1.046
-7.710 -8.608 0.919
-9.978 -9.671 -0.293
-9.752 -9.397 -0.384
-9.409 -9.635 0.241
-8.723 -9.858 1.140
-9.515 -9.472 -0.075
-9.515 -9.472 -0.075
-9.761 -9.597 -0.153
-6.755 -7.943 1.192
-8.161 -9.975 1.827
-9.736 -9.710 -0.009
-8.951 -10.410 1.455
-9.758 -9.597 -0.150
-9.736 -9.710 -0.009
-8.232 -9.578 1.356
-7.881 -8.649 0.789
-8.549 -9.827 1.301
-11.060 -9.920 -1.133
-9.137 -10.009 0.881
-9.186 -10.380 1.192
-9.635 -10.241 0.612
-9.154 -10.009 0.865
-9.778 -9.692 -0.070
-9.098 -10.368 1.267
-7.797 -8.590 0.813
-9.413 -9.643 0.244
-9.642 -10.317 0.680
-11.172 -10.276 -0.891
-9.734 -9.712 -0.004
-8.925 -10.575 1.677
-8.959 -10.379 1.418
-9.734 -9.712 -0.005
-9.444 -9.490 0.013
-11.221 -10.271 -0.945
-10.103 -10.665 0.529
-9.098 -9.455 0.322
-9.901 -9.707 -0.176
-9.901 -9.707 -0.176
-9.752 -9.706 -0.028
-8.848 -10.067 1.224
-8.595 -9.594 1.020
-8.161 -9.975 1.828
-9.749 -9.708 -0.023
-10.643 -9.939 -0.700
-8.245 -9.571 1.336
-9.749 -9.708 -0.023
-8.170 -9.972 1.816
-9.763 -9.593 -0.159
-8.120 -9.660 1.538
-8.817 -10.030 1.220
-8.988 -10.364 1.375
-9.718 -9.396 -0.350
-9.154 -10.009 0.865
-8.170 -9.972 1.815
-9.753 -9.704 -0.030
-9.344 -9.647 0.320
-8.825 -10.025 1.185
-7.791 -8.591 0.819
-8.774 -10.031 1.265
-9.461 -9.486 -0.008
-8.050 -9.304 1.261
-9.034 -10.561 1.554
-8.050 -9.304 1.261
-7.759 -10.146 2.400
-8.764 -9.808 1.068
-8.049 -9.305 1.262
-8.771 -10.032 1.269
-8.033 -9.584 1.539
-8.790 -10.029 1.247
-7.708 -9.676 1.952
-9.567 -10.141 0.577
-9.837 -9.682 -0.139
-8.272 -9.300 1.033
-9.463 -9.481 -0.011
-8.272 -9.299 1.033
-8.815 -10.372 1.546
-10.531 -10.690 0.188
-7.735 -9.486 1.747
-9.811 -9.695 -0.099
-9.057 -9.532 0.444
-9.152 -9.370 0.220
-8.793 -10.029 1.244
-8.793 -10.029 1.244
-9.468 -9.954 0.481
-7.956 -9.478 1.517
-8.179 -9.967 1.801
-9.825 -9.585 -0.229
-10.530 -10.690 0.189
-7.735 -9.486 1.747
-9.813 -9.693 -0.102
-9.161 -10.005 0.853
-7.993 -9.904 1.924
-10.503 -10.653 0.107
-9.487 -9.620 0.147
-8.178 -9.967 1.802
-9.073 -10.149 0.994
-7.842 -9.482 1.636
-10.100 -10.615 0.498
-8.182 -9.965 1.797
-8.182 -9.965 1.797
-8.262 -8.495 0.234
-7.386 -9.157 1.770
-7.538 -8.866 1.302
-8.794 -10.026 1.239
-7.800 -9.197 1.396
-8.794 -10.025 1.239
-8.493 -9.862 1.373
-9.162 -9.370 0.211
-8.188 -9.965 1.791
-9.442 -10.444 1.033
-8.286 -9.648 1.358
-8.504 -9.859 1.359
-10.798 -9.936 -0.857
-10.740 -9.954 -0.778
-7.883 -9.483 1.596
-7.776 -10.142 2.379
-8.604 -10.218 1.623
-9.442 -10.444 1.033
-8.794 -10.026 1.240
-9.852 -9.679 -0.156
-9.175 -10.003 0.838
-7.789 -10.132 2.355
-9.144 -9.440 0.266
-9.160 -9.370 0.213
-8.282 -9.298 1.021
-8.495 -9.861 1.371
-9.827 -9.691 -0.118
-10.513 -10.652 0.097
-7.734 -9.485 1.746
-7.204 -8.652 1.452
-9.117 -9.526 0.383
-8.794 -10.026 1.240
-10.464 -10.601 0.113
-6.579 -8.205 1.642
-8.280 -9.299 1.024
-8.186 -9.966 1.793
-10.798 -9.936 -0.857
-8.283 -9.301 1.022
-10.275 -10.644 0.361
-7.708 -9.463 1.747
-9.828 -9.493 -0.321
-9.176 -10.003 0.837
-8.958 -10.413 1.453
-8.138 -9.578 1.458
-8.186 -9.966 1.793
-10.117 -10.183 0.075
-9.838 -9.500 -0.324
-7.734 -9.485 1.747
-9.979 -10.436 0.474
-10.117 -10.183 0.075
-9.488 -9.483 -0.036
-9.086 -9.533 0.417
-9.163 -10.001 0.847
-9.838 -9.499 -0.326
-7.924 -9.285 1.367
-8.350 -9.318 0.963
-8.803 -9.855 1.057
-7.765 -9.683 1.903
-8.564 -10.307 1.730
-8.790 -10.028 1.245
-10.513 -10.652 0.097
-8.181 -9.967 1.799
-8.148 -9.579 1.449
-9.849 -9.682 -0.151
-8.776 -10.032 1.263
-8.793 -10.027 1.242
-10.869 -10.690 -0.152
-8.186 -9.965 1.793
-8.133 -9.574 1.460
-7.792 -9.489 1.693
-7.745 -9.670 1.909
-9.486 -9.480 -0.036
-10.130 -10.652 0.490
-7.727 -9.482 1.751
-9.080 -9.532 0.422
-7.816 -9.308 1.490
-8.498 -9.862 1.370
-9.717 -10.597 0.866
-7.727 -9.482 1.751
-8.604 -10.217 1.624
-7.586 -8.963 1.395
-10.514 -10.652 0.096
-8.504 -9.607 1.125
-8.794 -10.026 1.240
-7.933 -9.284 1.357
-8.794 -10.026 1.240
-9.183 -9.368 0.188
-9.589 -9.446 -0.128
-9.149 -10.340 1.188
-10.117 -10.183 0.075
-10.509 -10.652 0.102
-8.602 -10.218 1.626
-8.271 -9.300 1.034
-9.149 -10.340 1.189
-8.050 -9.655 1.601
-7.711 -9.490 1.775
-8.782 -10.035 1.261
-9.492 -9.632 0.154
-7.967 -10.124 2.165
-10.471 -10.660 0.146
-8.204 -10.136 1.937
-7.977 -10.114 2.146
-9.120 -9.379 0.262
-7.983 -9.652 1.688
-8.748 -10.061 1.318
-9.068 -9.542 0.447
-8.776 -10.035 1.266
-10.420 -10.753 0.362
-10.113 -10.640 0.502
-8.061 -9.481 1.423
-10.498 -10.653 0.113
-7.159 -8.662 1.509
-9.139 -9.372 0.236
-8.061 -9.482 1.424
-9.550 -9.420 -0.111
-10.109 -10.185 0.086
-9.095 -9.539 0.418
-7.878 -9.480 1.597
-9.133 -9.373 0.242
-11.207 -10.270 -0.933
-9.132 -9.376 0.247
-9.532 -9.448 -0.068
-9.483 -9.509 -0.006
-8.417 -9.866 1.454
-10.497 -10.655 0.116
-8.418 -9.866 1.453
-9.154 -9.374 0.224
-8.172 -9.976 1.817
-8.172 -9.976 1.817
-7.889 -9.320 1.436
-9.299 -9.611 0.328
-9.151 -9.375 0.227
-8.028 -9.597 1.573
-9.144 -9.537 0.364
-8.779 -10.034 1.263
-8.171 -9.976 1.819
-9.533 -9.451 -0.066
-8.028 -9.601 1.578
-7.858 -8.639 0.801
-7.061 -9.064 1.995
-9.132 -9.376 0.247
-9.023 -9.536 0.483
-8.768 -10.035 1.275
-8.730 -10.062 1.337
-8.158 -9.976 1.831
-7.930 -9.305 1.382
-8.762 -9.865 1.108
-11.221 -10.271 -0.946
-8.770 -10.033 1.271
-10.497 -10.655 0.116
-7.582 -8.962 1.398
-10.027 -10.497 0.479
-9.066 -10.383 1.314
-7.967 -9.503 1.549
-7.626 -9.483 1.856
-8.163 -9.974 1.824
-9.135 -9.375 0.243
-10.251 -10.761 0.546
-11.222 -10.271 -0.947
-8.770 -10.033 1.271
-7.761 -10.133 2.384
-9.028 -9.532 0.476
-9.584 -10.128 0.546
-8.057 -9.301 1.251
-9.317 -10.429 1.129
-10.500 -10.655 0.113
-7.669 -9.484 1.813
-8.777 -10.032 1.263
-9.020 -10.352 1.332
-9.343 -9.658 0.332
-10.110 -10.188 0.088
-8.765 -10.041 1.284
-8.765 -10.041 1.284
-10.110 -10.188 0.088
-7.697 -9.486 1.789
-8.143 -9.982 1.852
-9.146 -9.376 0.233
-10.430 -10.599 0.162
-9.753 -9.707 -0.028
-8.172 -9.971 1.812
-9.053 -9.531 0.448
-9.550 -9.351 -0.170
-9.136 -9.376 0.243
-7.925 -9.303 1.385
-9.387 -10.548 1.188
-8.275 -9.315 1.046
-9.655 -9.994 0.349
-8.091 -9.744 1.665
-10.339 -10.791 0.484
-8.546 -10.323 1.764
-11.222 -10.271 -0.947
-9.065 -10.383 1.315
-8.759 -10.041 1.290
-7.610 -9.490 1.879
-9.386 -10.548 1.189
-8.149 -9.980 1.844
-10.496 -10.656 0.118
-11.220 -10.271 -0.944
-5.822 -7.350 1.538
-10.243 -10.769 0.562
-5.053 -8.070 3.017
-9.133 -9.377 0.247
-8.878 -9.913 1.039
-9.772 -9.505 -0.255
-7.819 -9.829 2.002
-8.126 -9.989 1.876
-8.418 -9.873 1.459
-9.571 -9.920 0.334
-8.835 -9.861 1.030
-9.137 -9.370 0.236
-7.565 -8.878 1.321
-8.251 -9.743 1.505
-9.137 -9.371 0.236
-9.137 -9.371 0.237
-7.864 -8.638 0.795
-8.843 -9.667 0.843
-7.729 -9.484 1.751
-10.504 -10.652 0.106
-8.794 -10.029 1.243
-8.794 -10.029 1.243
-8.794 -10.029 1.243
-8.599 -10.219 1.631
-8.839 -10.027 1.196
-10.112 -10.184 0.081
-9.152 -9.370 0.221
-8.488 -9.862 1.379
-8.178 -9.966 1.802
-9.485 -9.948 0.456
-9.467 -9.480 -0.017
-9.551 -9.433 -0.101
-8.793 -10.029 1.244
-8.154 -9.571 1.435
-9.467 -10.430 0.995
-9.469 -10.430 0.993
-10.116 -10.656 0.508
-9.494 -10.423 0.961
-9.565 -9.349 -0.188
-8.793 -10.029 1.244
-8.487 -9.862 1.380
-7.729 -9.484 1.751
-8.572 -10.298 1.713
-8.793 -10.029 1.244
-9.467 -10.430 0.994
-7.386 -9.162 1.775
-9.560 -9.349 -0.183
-9.134 -9.371 0.240
-7.729 -9.484 1.751
-7.742 -9.485 1.739
-9.088 -10.146 0.977
-6.569 -8.210 1.658
-8.793 -10.029 1.244
-8.793 -10.029 1.244
-8.793 -10.029 1.244
-10.504 -10.652 0.106
-9.046 -10.331 1.284
-10.550 -10.675 0.155
-8.782 -10.039 1.265
-7.866 -8.639 0.793
-9.736 -9.384 -0.377
-8.153 -9.976 1.836
-9.136 -9.372 0.239
-9.457 -10.430 1.005
-9.136 -9.372 0.239
-10.539 -10.684 0.175
-10.269 -10.628 0.353
-8.483 -9.868 1.390
-8.782 -10.038 1.264
-9.176 -10.006 0.839
-8.181 -9.966 1.799
-7.802 -9.197 1.395
-9.467 -10.430 0.994
-8.275 -9.652 1.373
-9.008 -9.575 0.588
-8.273 -9.652 1.375
-9.951 -10.431 0.495
-8.053 -9.652 1.596
-7.914 -9.286 1.378
-9.134 -9.371 0.240
-8.180 -9.966 1.800
-8.487 -9.862 1.379
-9.467 -10.430 0.994
-8.197 -9.576 1.397
-9.408 -9.633 0.241
-8.794 -10.029 1.243
-7.730 -9.483 1.749
-8.180 -9.966 1.800
-10.536 -10.684 0.178
-8.180 -9.966 1.800
-10.542 -10.684 0.171
-8.794 -10.029 1.243
-9.485 -9.937 0.446
-7.986 -10.112 2.134
-8.155 -9.571 1.434
-8.215 -9.412 1.199
-10.504 -10.652 0.106
-9.138 -9.371 0.235
-8.056 -9.450 1.396
-8.180 -9.966 1.799
-8.180 -9.966 1.799
-9.163 -10.004 0.850
-9.467 -10.430 0.994
-8.498 -10.362 1.852
-9.551 -9.467 -0.069
-8.856 -9.671 0.835
-9.464 -9.479 -0.015
-8.144 -9.571 1.445
-7.742 -9.485 1.739
-8.179 -9.966 1.801
-9.156 -9.369 0.216
-8.860 -9.671 0.831
-8.155 -9.571 1.435
-10.465 -10.660 0.152
-9.538 -9.447 -0.075
-8.029 -10.030 2.012
-10.471 -10.660 0.146
-8.459 -10.514 2.061
-5.544 -7.194 1.660
-10.472 -10.660 0.145
-9.137 -9.377 0.244
-8.753 -10.061 1.312
-10.157 -10.692 0.468
-10.437 -10.753 0.345
-9.435 -9.513 0.049
-8.786 -10.034 1.256
-8.517 -9.849 1.339
-9.136 -9.373 0.240
-8.786 -10.034 1.256
-11.214 -10.271 -0.939
-10.240 -10.769 0.565
-10.319 -9.263 -1.120
-8.782 -10.033 1.260
-9.143 -10.008 0.874
-9.143 -10.008 0.874
-8.112 -9.634 1.519
-8.491 -9.862 1.375
-10.527 -10.687 0.189
-10.119 -10.653 0.502
-9.517 -9.500 -0.047
-9.137 -9.579 0.464
-11.221 -10.272 -0.945
-7.860 -9.298 1.444
-7.948 -9.907 1.971
-7.494 -9.499 2.010
-9.133 -9.376 0.246
-9.990 -10.475 0.495
-10.497 -10.655 0.116
-9.323 -9.656 0.349
-10.110 -10.189 0.089
-7.931 -9.306 1.382
-9.377 -10.548 1.199
-8.331 -9.892 1.570
-7.928 -9.301 1.380
-5.754 -8.358 2.616
-9.350 -11.188 1.841
-9.461 -9.484 -0.010
-10.339 -10.792 0.485
-7.716 -9.478 1.763
-8.424 -9.863 1.443
-10.110 -10.188 0.088
-7.984 -10.115 2.140
-8.424 -9.861 1.442
-9.568 -9.920 0.336
-9.465 -9.976 0.499
-7.730 -9.483 1.750
-10.504 -10.652 0.106
-10.481 -10.673 0.122
-6.761 -7.942 1.185
-10.542 -10.685 0.172
-10.535 -10.685 0.179
-8.131 -9.571 1.458
-10.504 -10.652 0.106
-10.112 -10.184 0.081
-7.991 -10.110 2.128
-7.628 -9.525 1.917
-9.832 -9.584 -0.237
-9.467 -10.430 0.995
-9.475 -9.482 -0.023
-9.467 -10.430 0.995
-8.072 -9.446 1.376
-10.532 -10.685 0.182
-10.534 -10.685 0.180
-7.885 -8.647 0.782
-9.485 -9.937 0.446
-9.410 -9.638 0.244
-8.564 -9.845 1.288
-9.498 -10.425 0.959
-9.541 -9.458 -0.112
-8.180 -9.966 1.800
-9.136 -9.371 0.238
-8.270 -9.300 1.034
-8.156 -9.571 1.434
-8.097 -9.654 1.579
-9.337 -9.650 0.329
-8.728 -9.299 0.577
-9.377 -10.548 1.199
-7.794 -9.483 1.687
-8.178 -9.969 1.805
-10.330 -10.792 0.494
-8.086 -9.096 1.011
-9.377 -10.548 1.199
-10.339 -10.792 0.485
-10.262 -10.643 0.374
-11.222 -10.271 -0.946
-9.326 -9.653 0.343
-8.323 -9.893 1.580
-8.772 -10.032 1.268
-8.413 -9.863 1.455
-8.855 -10.258 1.402
-10.332 -10.792 0.493
-11.222 -10.271 -0.946
-7.045 -9.041 2.018
-10.245 -10.769 0.560
-10.603 -9.946 -0.652
-7.460 -9.801 2.336
-7.629 -9.482 1.851
-8.843 -10.067 1.229
-9.377 -10.548 1.199
-8.638 -10.257 1.628
-8.931 -10.403 1.466
-7.920 -9.303 1.390
-9.147 -10.006 0.869
-7.362 -10.761 3.382
-8.630 -10.250 1.631
-8.776 -10.031 1.263
-10.347 -10.784 0.469
-8.054 -9.621 1.583
-8.162 -9.440 1.283
-8.854 -10.257 1.404
-8.815 -10.472 1.663
-8.835 -9.861 1.031
-10.533 -10.686 0.182
-8.499 -10.308 1.798
-8.270 -9.300 1.034
-8.153 -9.572 1.438
-8.335 -9.971 1.650
-6.537 -8.630 2.090
-9.482 -9.937 0.449
-9.055 -9.527 0.443
-9.488 -10.428 0.972
-9.409 -9.638 0.245
-9.804 -9.503 -0.287
-8.178 -9.967 1.802
-10.540 -10.685 0.175
-10.530 -10.686 0.184
-5.547 -7.827 2.279
-9.840 -9.584 -0.244
-8.796 -9.854 1.062
-9.402 -10.146 0.761
-10.530 -10.686 0.185
-9.136 -9.372 0.239
-10.530 -10.686 0.185
-7.203 -8.439 1.236
-10.520 -10.687 0.197
-9.078 -9.526 0.419
-7.791 -10.129 2.351
-7.703 -9.477 1.770
-10.513 -10.687 0.203
-9.485 -9.482 -0.033
-8.792 -10.027 1.243
-10.506 -10.688 0.211
-11.218 -10.269 -0.945
-10.221 -10.770 0.585
-11.218 -10.269 -0.945
-8.141 -9.714 1.571
-9.432 -10.442 1.041
-9.482 -9.483 -0.029
-9.392 -10.009 0.619
-7.785 -9.490 1.701
-8.571 -10.305 1.721
-9.591 -10.122 0.534
-8.494 -9.864 1.374
-10.516 -10.689 0.203
-9.420 -9.637 0.234
-10.507 -10.689 0.212
-8.151 -9.577 1.444
-10.515 -10.686 0.197
-8.582 -9.594 1.032
-9.453 -9.940 0.481
-9.453 -9.940 0.481
-9.432 -10.442 1.041
-9.399 -10.153 0.770
-9.419 -9.637 0.235
-10.516 -10.689 0.202
-8.192 -9.582 1.408
-8.494 -9.863 1.373
-9.432 -10.442 1.041
-7.630 -9.526 1.916
-10.507 -10.689 0.211
-9.265 -10.141 0.879
-5.810 -8.257 2.458
-9.432 -10.442 1.041
-10.509 -10.689 0.209
-10.509 -10.689 0.209
-7.629 -9.526 1.916
-9.432 -10.442 1.041
-7.721 -9.484 1.759
-7.563 -9.505 1.948
-10.117 -10.183 0.076
-10.509 -10.689 0.209
-10.505 -10.690 0.213
-10.516 -10.689 0.202
-9.453 -9.940 0.481
-10.516 -10.689 0.202
-8.715 -10.024 1.298
-10.510 -10.689 0.208
-8.336 -8.516 0.181
-9.423 -9.634 0.228
-6.568 -8.636 2.064
-8.071 -10.049 1.983
-10.506 -10.690 0.212
-9.453 -9.926 0.469
-9.423 -9.634 0.228
-9.495 -9.484 -0.041
-7.727 -9.482 1.751
-9.423 -10.442 1.051
-8.366 -9.889 1.532
-10.517 -10.689 0.202
-8.795 -10.025 1.238
-8.572 -9.848 1.282
-9.453 -9.940 0.481
-8.154 -9.576 1.440
-8.496 -9.861 1.370
-7.431 -9.705 2.284
-10.510 -10.689 0.208
-8.080 -8.910 0.821
-11.194 -10.270 -0.919
-10.220 -10.770 0.585
-10.213 -10.770 0.593
-8.082 -9.084 1.005
-8.827 -9.596 0.737
-11.200 -10.271 -0.925
-9.296 -10.383 1.082
-10.286 -10.787 0.535
-9.460 -9.512 0.021
-11.206 -10.270 -0.932
-9.447 -9.514 0.036
-8.859 -10.255 1.394
-11.213 -10.271 -0.938
-9.447 -9.514 0.036
-8.812 -10.287 1.471
-8.091 -9.146 1.055
-8.091 -9.145 1.054
-10.261 -10.645 0.377
-9.099 -10.547 1.477
-11.207 -10.270 -0.933
-11.213 -10.271 -0.938
-7.485 -9.496 2.016
-7.628 -9.539 1.931
-8.891 -10.582 1.716
-8.855 -10.257 1.405
-10.324 -10.791 0.500
-9.385 -10.548 1.191
-9.165 -10.534 1.398
-7.511 -9.513 2.009
-8.095 -10.439 2.270
-10.324 -10.792 0.500
-9.142 -10.539 1.426
-8.169 -9.502 1.334
-10.534 -10.685 0.180
-9.131 -9.536 0.378
-10.528 -10.685 0.186
-8.083 -10.026 1.944
-9.521 -10.415 0.926
-7.567 -9.501 1.940
-9.343 -10.008 0.681
-8.063 -9.661 1.595
-9.497 -10.420 0.955
-9.494 -9.935 0.435
-9.494 -9.935 0.435
-10.533 -10.682 0.178
-10.533 -10.682 0.178
-10.541 -10.682 0.170
-10.541 -10.682 0.170
-10.536 -10.682 0.176
-7.867 -8.639 0.792
-7.447 -9.332 1.888
-9.493 -9.936 0.436
-7.990 -10.111 2.130
-10.500 -10.653 0.111
-9.427 -9.484 0.027
-6.794 -8.256 1.464
-9.497 -10.419 0.954
-10.273 -10.531 0.295
-10.542 -10.681 0.168
-10.539 -10.682 0.172
-7.755 -9.660 1.888
-8.485 -9.866 1.386
-9.538 -11.735 2.191
-9.526 -10.412 0.918
-5.518 -7.460 1.947
-11.219 -10.268 -0.947
-8.772 -9.701 0.949
-10.869 -10.689 -0.153
-7.551 -9.499 1.953
-7.554 -9.498 1.951
-6.338 -7.945 1.615
-9.458 -9.939 0.476
-7.802 -8.580 0.798
-10.520 -10.687 0.196
-9.460 -9.940 0.474
-9.460 -9.933 0.467
-10.514 -10.687 0.202
-10.520 -10.686 0.196
-10.520 -10.687 0.196
-10.511 -10.687 0.205
-7.522 -8.866 1.318
-10.520 -10.686 0.195
-9.459 -9.936 0.471
-9.454 -10.436 1.013
-10.511 -10.687 0.204
-9.164 -10.001 0.846
-9.458 -9.938 0.473
-10.516 -10.686 0.200
-10.509 -10.687 0.207
-8.378 -9.968 1.596
-7.795 -9.673 1.862
-11.079 -12.386 1.330
-8.079 -9.447 1.370
-11.141 -9.441 -1.682
-10.913 -9.422 -1.472
-9.552 -9.503 -0.035
-9.585 -10.122 0.539
-9.552 -9.502 -0.036
-9.890 -9.445 -0.427
-9.972 -9.472 -0.489
-7.410 -9.201 1.809
-8.179 -8.470 0.289
-10.510 -10.655 0.102
-9.503 -9.491 0.006
-8.770 -10.032 1.269
-9.972 -9.470 -0.492
-11.141 -9.441 -1.682
-10.682 -9.463 -1.203
-10.018 -10.181 0.171
-10.509 -10.655 0.103
-9.972 -9.470 -0.492
-10.509 -10.655 0.103
-10.111 -10.183 0.082
-8.179 -8.470 0.289
-8.395 -9.972 1.591
-8.346 -9.970 1.639
-8.395 -9.973 1.592
-10.912 -9.423 -1.471
-10.126 -10.647 0.497
-8.395 -9.973 1.591
-8.597 -10.218 1.630
-8.529 -9.868 1.344
-10.511 -10.652 0.099
-9.552 -9.503 -0.035
-7.607 -8.865 1.263
-9.349 -9.351 0.009
-8.598 -10.218 1.629
-10.460 -9.455 -0.992
-9.148 -9.664 0.484
-8.346 -9.971 1.639
-8.120 -9.654 1.531
-8.346 -9.971 1.639
-9.348 -9.352 0.011
-9.716 -10.594 0.864
-9.699 -10.219 0.413
-8.596 -10.217 1.632
-8.792 -10.027 1.243
-9.583 -10.124 0.544
-10.047 -10.520 0.454
-9.348 -9.352 0.011
-9.969 -9.584 -0.416
-10.110 -10.183 0.083
-9.348 -9.352 0.011
-10.178 -10.635 0.449
-10.124 -10.638 0.487
-9.349 -9.352 0.010
-8.362 -9.890 1.538
-7.128 -9.199 2.091
-9.349 -9.351 0.009
-8.185 -9.966 1.794
-8.598 -10.217 1.629
-10.511 -10.651 0.098
-10.450 -9.432 -1.001
-9.191 -9.661 0.439
-9.900 -9.442 -0.440
-7.978 -9.900 1.935
-9.591 -10.120 0.531
-9.183 -9.365 0.185
-8.392 -9.972 1.594
-8.392 -9.972 1.594
-9.181 -9.366 0.187
-9.005 -10.405 1.399
-10.126 -10.639 0.490
-10.135 -10.651 0.486
-9.244 -9.344 0.102
-10.511 -10.652 0.099
-8.598 -10.217 1.629
-9.144 -9.659 0.484
-8.184 -9.966 1.796
-7.419 -9.169 1.770
-10.268 -10.641 0.366
-8.342 -9.971 1.642
-9.793 -9.336 -0.436
-10.129 -10.653 0.493
-9.177 -9.366 0.191
-9.177 -9.366 0.192
-10.268 -10.641 0.366
-10.268 -10.641 0.366
-9.587 -10.122 0.538
-9.177 -9.366 0.191
-8.342 -9.971 1.642
-9.632 -10.584 0.938
-8.598 -10.218 1.630
-10.127 -10.659 0.500
-10.268 -10.641 0.366
-10.034 -9.459 -0.563
-10.131 -10.653 0.491
-10.914 -9.422 -1.474
-10.511 -10.652 0.099
-10.040 -9.459 -0.569
-8.777 -10.031 1.262
-10.509 -10.655 0.103
-8.343 -9.970 1.642
-9.191 -9.661 0.438
-10.221 -9.376 -0.829
-9.560 -9.501 -0.045
-7.350 -9.033 1.698
-10.032 -9.459 -0.561
-8.599 -10.218 1.629
-8.599 -10.218 1.629
-10.032 -9.459 -0.561
-9.180 -9.366 0.189
-10.223 -9.417 -0.791
-9.144 -9.659 0.483
-10.111 -10.183 0.082
-9.191 -9.661 0.438
-10.130 -10.658 0.495
-7.447 -9.084 1.643
-8.598 -10.218 1.630
-10.030 -9.461 -0.557
-9.500 -9.872 0.283
-10.227 -9.415 -0.797
-10.386 -10.541 0.148
-10.300 -9.472 -0.811
-9.311 -9.583 0.286
-10.265 -10.645 0.373
-9.960 -10.451 0.492
-10.265 -10.645 0.373
-8.146 -10.042 1.908
-9.126 -9.379 0.255
-8.725 -10.097 1.380
-8.808 -9.584 0.797
-7.422 -8.904 1.491
-9.607 -9.399 -0.189
-9.713 -10.600 0.872
-8.712 -10.082 1.378
-9.179 -9.663 0.453
-10.099 -10.673 0.533
-10.011 -10.183 0.180
-9.132 -9.661 0.497
-10.055 -9.461 -0.579
-8.593 -10.220 1.637
-10.054 -9.463 -0.575
-9.385 -9.566 0.195
-10.054 -9.463 -0.575
-10.333 -9.466 -0.850
-10.052 -9.465 -0.572
-7.983 -10.123 2.151
-9.385 -9.565 0.195
-10.333 -9.466 -0.850
-10.051 -9.473 -0.564
-7.984 -10.112 2.136
-8.251 -10.036 1.796
-9.220 -9.588 0.385
-8.035 -10.029 2.005
-10.268 -10.643 0.368
-10.484 -10.659 0.132
-9.715 -10.598 0.869
-10.899 -9.422 -1.458
-8.193 -10.035 1.854
-7.778 -10.135 2.369
-9.170 -9.664 0.462
-10.447 -9.454 -0.980
-9.634 -9.989 0.356
-7.802 -9.695 1.895
-9.623 -10.585 0.947
-9.160 -9.374 0.218
-10.447 -9.454 -0.980
-9.170 -9.664 0.462
-8.387 -10.046 1.668
-10.169 -10.636 0.459
-9.973 -9.469 -0.494
-7.342 -9.061 1.730
-7.472 -8.894 1.428
-9.171 -9.664 0.462
-9.552 -9.504 -0.034
-8.694 -10.086 1.400
-9.352 -9.532 0.199
-7.328 -9.145 1.835
-9.552 -9.504 -0.034
-9.123 -9.662 0.506
-8.610 -9.339 0.715
-9.398 -9.549 0.167
-9.149 -9.663 0.483
-8.588 -10.220 1.641
-10.896 -9.423 -1.455
-8.694 -10.086 1.400
-9.552 -9.505 -0.033
-9.972 -9.479 -0.483
-9.395 -9.542 0.164
-8.192 -10.035 1.855
-10.169 -10.636 0.459
-10.480 -10.659 0.137
-10.086 -10.610 0.510
-10.434 -9.431 -0.986
-10.447 -9.454 -0.980
-9.124 -9.662 0.506
-7.813 -9.960 2.159
-10.169 -10.636 0.459
-10.898 -9.423 -1.457
-10.209 -9.413 -0.781
-9.622 -10.586 0.949
-9.778 -9.337 -0.419
-10.259 -10.643 0.376
-10.478 -10.663 0.141
-8.610 -9.339 0.715
-8.193 -10.035 1.854
-9.162 -9.374 0.216
-8.963 -9.610 0.663
-9.357 -9.532 0.194
-9.163 -9.374 0.214
-7.569 -9.740 2.182
-10.260 -10.643 0.376
-6.674 -8.522 1.844
-10.433 -9.431 -0.985
-9.148 -9.663 0.483
-9.398 -9.543 0.161
-7.537 -9.728 2.203
-9.400 -9.548 0.164
-8.193 -10.035 1.854
-9.400 -9.548 0.164
-6.714 -8.519 1.800
-9.400 -9.548 0.164
-9.172 -9.663 0.459
-7.511 -9.722 2.222
-7.284 -9.053 1.769
-8.193 -10.035 1.854
-9.401 -9.549 0.163
-9.353 -9.531 0.197
-9.400 -9.545 0.163
-9.553 -9.504 -0.035
-9.620 -10.585 0.950
-9.150 -9.662 0.480
-8.611 -9.338 0.713
-7.980 -10.110 2.139
-10.434 -9.431 -0.986
-10.021 -9.458 -0.551
-10.434 -9.431 -0.987
-10.899 -9.422 -1.458
-10.210 -9.413 -0.782
-9.622 -10.584 0.948
-9.200 -9.215 0.011
-7.981 -10.110 2.137
-7.666 -9.669 2.006
-7.473 -9.166 1.727
-9.147 -9.657 0.478
-7.510 -9.719 2.220
-9.501 -10.117 0.616
-10.052 -10.582 0.510
-7.075 -9.192 2.125
-9.501 -10.117 0.616
-8.301 -8.317 0.022
-7.046 -9.177 2.139
-9.220 -9.357 0.140
-9.364 -9.531 0.186
-7.803 -9.696 1.894
-7.075 -9.192 2.125
-8.753 -9.193 0.404
-10.046 -10.570 0.514
-8.192 -10.035 1.855
-9.409 -9.547 0.154
-9.562 -9.501 -0.047
-8.583 -10.219 1.646
-10.016 -9.459 -0.545
-6.714 -8.518 1.800
-9.562 -9.503 -0.045
-6.551 -8.210 1.675
-9.147 -9.657 0.478
-9.512 -9.490 -0.004
-7.510 -9.719 2.221
-9.159 -9.374 0.219
-8.642 -9.330 0.674
-9.779 -9.328 -0.427
-9.408 -9.545 0.153
-10.110 -10.185 0.085
-8.639 -9.330 0.677
-9.586 -10.124 0.541
-10.209 -9.414 -0.780
-8.642 -9.330 0.674
-9.408 -9.547 0.155
-9.410 -9.547 0.154
-8.493 -9.877 1.390
-8.642 -9.330 0.674
-6.551 -8.210 1.675
-8.630 -9.331 0.688
-9.703 -10.597 0.880
-9.704 -10.597 0.880
-7.778 -10.135 2.369
-10.257 -10.642 0.378
-9.410 -9.549 0.155
-8.630 -9.331 0.688
-9.194 -9.659 0.433
-10.435 -9.431 -0.988
-8.630 -9.331 0.688
-8.640 -9.330 0.676
-8.642 -9.330 0.674
-9.621 -10.585 0.950
-7.511 -9.719 2.220
-10.212 -9.414 -0.783
-7.300 -9.012 1.729
-10.212 -9.413 -0.784
-9.409 -9.547 0.155
-8.642 -9.330 0.674
-6.964 -8.683 1.726
-9.780 -9.336 -0.421
-9.410 -9.547 0.152
-7.413 -9.164 1.785
-9.172 -9.658 0.454
-8.694 -10.086 1.399
-6.335 -8.429 2.092
-9.147 -9.657 0.478
-10.212 -9.413 -0.783
-10.435 -9.431 -0.988
-10.212 -9.413 -0.783
-9.410 -9.548 0.154
-7.511 -9.719 2.220
-10.017 -9.459 -0.546
-8.630 -9.331 0.688
-8.695 -10.086 1.399
-9.194 -9.659 0.433
-8.695 -10.086 1.399
-9.409 -9.547 0.154
-7.415 -9.163 1.782
-10.584 -10.358 -0.210
-10.209 -10.297 0.086
-10.151 -10.288 0.132
-10.208 -10.297 0.086
-10.208 -10.297 0.086
-11.182 -10.755 -0.423
-11.182 -10.755 -0.423
-10.331 -10.229 -0.087
-10.658 -10.303 -0.340
-10.218 -10.234 0.033
-9.123 -9.861 0.735
-10.604 -10.302 -0.287
-10.239 -10.296 0.052
-10.208 -10.297 0.086
-10.583 -10.358 -0.210
-9.078 -10.296 1.208
-10.336 -10.229 -0.092
-11.182 -10.755 -0.422
-10.263 -10.234 -0.034
-11.182 -10.755 -0.423
-10.263 -10.232 -0.036
-8.917 -8.955 0.017
-10.275 -10.230 -0.047
-10.749 -10.455 -0.290
-10.330 -10.229 -0.087
-9.145 -9.861 0.714
-10.156 -10.338 0.183
-10.792 -10.457 -0.330
-11.182 -10.755 -0.423
-8.917 -8.955 0.017
-10.605 -10.303 -0.287
-9.162 -10.256 1.094
-12.227 -9.750 -2.489
-11.184 -10.757 -0.423
-10.260 -10.231 -0.034
-10.600 -10.302 -0.282
-10.761 -10.457 -0.300
-10.236 -10.231 -0.009
-8.917 -8.955 0.017
-8.917 -8.955 0.017
-8.917 -8.955 0.017
-9.124 -9.861 0.735
-9.124 -9.861 0.735
-10.266 -10.231 -0.040
-10.266 -10.231 -0.040
-11.184 -10.757 -0.423
-11.184 -10.757 -0.423
-10.342 -10.229 -0.099
-10.580 -10.358 -0.207
-8.722 -10.296 1.571
-10.544 -10.344 -0.185
-10.342 -10.229 -0.099
-11.123 -10.702 -0.404
-11.184 -10.757 -0.423
-8.921 -9.621 0.704
-10.600 -10.302 -0.282
-11.184 -10.757 -0.423
-10.281 -10.229 -0.055
-10.653 -10.303 -0.335
-9.126 -9.860 0.732
-10.236 -10.231 -0.009
-9.934 -10.231 0.289
-9.901 -10.231 0.323
-10.236 -10.231 -0.009
-11.222 -10.759 -0.461
-10.281 -10.229 -0.055
-9.189 -10.253 1.065
-11.184 -10.757 -0.423
-9.232 -10.250 1.019
-10.236 -10.231 -0.009
-10.600 -10.302 -0.283
-10.236 -10.231 -0.009
-10.236 -10.231 -0.009
-8.882 -8.954 0.052
-7.626 -7.731 0.116
-10.265 -10.231 -0.040
-11.171 -10.760 -0.407
-10.337 -10.228 -0.094
-9.988 -10.340 0.368
-9.988 -10.340 0.368
-10.600 -10.302 -0.282
-9.126 -9.861 0.732
-10.260 -10.231 -0.034
-8.699 -8.210 -0.464
-11.184 -10.757 -0.423
-10.262 -10.255 -0.012
-10.337 -10.229 -0.094
-9.930 -10.227 0.290
-8.658 -8.953 0.273
-11.171 -10.760 -0.407
-8.920 -9.621 0.704
-8.362 -8.555 0.188
-10.235 -10.231 -0.007
-10.235 -10.231 -0.007
-10.790 -9.435 -1.348
-8.615 -9.392 0.757
-11.183 -10.755 -0.424
-10.265 -10.232 -0.038
-10.233 -10.232 -0.004
-8.620 -8.961 0.320
-8.912 -9.621 0.712
-9.161 -10.256 1.095
-10.592 -10.304 -0.272
-8.381 -8.555 0.169
-9.162 -10.256 1.093
-8.362 -8.555 0.188
-9.162 -10.256 1.094
-8.883 -8.954 0.052
-8.275 -8.558 0.279
-10.661 -10.963 0.297
-8.696 -8.210 -0.462
-10.262 -10.232 -0.035
-8.197 -8.130 -0.063
-8.381 -8.554 0.169
-11.184 -10.755 -0.425
-10.264 -10.229 -0.040
-10.257 -10.234 -0.026
-9.162 -10.255 1.093
-11.171 -10.758 -0.409
-8.243 -8.795 0.549
-9.164 -10.255 1.091
-8.441 -8.801 0.350
-8.926 -9.621 0.698
-11.198 -10.761 -0.435
-9.920 -10.227 0.299
-8.267 -8.952 0.690
-8.883 -8.954 0.052
-10.257 -10.234 -0.026
-10.230 -10.232 -0.001
-10.262 -10.232 -0.035
-8.953 -9.054 0.095
-10.262 -10.232 -0.035
-10.262 -10.232 -0.035
-11.184 -10.755 -0.425
-11.123 -10.702 -0.403
-11.184 -10.755 -0.425
-10.661 -10.302 -0.343
-10.232 -10.231 -0.005
-10.751 -10.455 -0.291
-8.381 -8.554 0.168
-8.883 -8.954 0.052
-8.381 -8.554 0.168
-10.751 -10.455 -0.291
-11.184 -10.755 -0.425
-8.183 -9.129 0.962
-10.232 -10.231 -0.005
-10.256 -10.234 -0.026
-10.230 -10.232 -0.001
-8.883 -8.954 0.051
-10.588 -10.357 -0.215
-10.786 -10.452 -0.329
-9.123 -9.861 0.736
-10.797 -10.456 -0.337
-11.184 -10.755 -0.425
-10.336 -10.229 -0.093
-11.171 -10.758 -0.409
-10.233 -10.232 -0.005
-10.607 -10.302 -0.290
-10.607 -10.302 -0.290
-8.362 -8.555 0.188
-10.797 -10.456 -0.336
-9.991 -10.341 0.365
-9.484 -9.073 -0.436
-10.798 -10.455 -0.338
-8.511 -9.027 0.490
-10.798 -10.455 -0.337
-11.219 -10.757 -0.460
-8.381 -8.554 0.169
-10.263 -10.231 -0.037
-9.923 -10.234 0.306
-8.275 -8.558 0.279
-6.445 -7.418 0.984
-8.129 -9.504 1.374
-8.362 -8.555 0.188
-8.927 -9.622 0.698
-9.221 -10.251 1.031
-8.821 -10.199 1.373
-10.329 -10.230 -0.085
-10.336 -10.229 -0.093
-10.607 -10.303 -0.289
-10.216 -10.235 0.035
-10.574 -10.358 -0.200
-8.565 -9.220 0.671
-8.503 -9.040 0.511
-8.883 -8.954 0.052
-10.063 -10.226 0.166
-10.262 -10.232 -0.036
-8.697 -8.209 -0.463
-8.666 -10.314 1.602
-11.184 -10.755 -0.425
-10.594 -10.303 -0.275
-8.296 -8.557 0.257
-11.171 -10.758 -0.409
-8.128 -9.504 1.374
-10.336 -10.229 -0.093
-10.336 -10.229 -0.093
-10.587 -10.357 -0.215
-10.118 -10.288 0.167
-10.787 -10.452 -0.330
-8.786 -8.621 -0.157
-11.184 -10.755 -0.425
-9.916 -10.230 0.308
-10.329 -10.229 -0.085
-11.184 -10.755 -0.425
-10.256 -10.231 -0.030
-10.587 -10.357 -0.215
-10.751 -10.455 -0.291
-10.232 -10.232 -0.003
-11.184 -10.755 -0.425
-11.184 -10.755 -0.425
-10.654 -10.963 0.304
-10.559 -10.330 -0.214
-8.611 -9.588 0.989
-11.171 -10.758 -0.409
-7.491 -7.726 0.245
-9.996 -10.340 0.359
-9.891 -10.227 0.330
-10.816 -10.462 -0.350
-9.123 -9.860 0.735
-11.184 -10.755 -0.425
-10.607 -10.308 -0.285
-11.184 -10.755 -0.425
-10.332 -10.229 -0.089
-10.751 -10.455 -0.291
-9.122 -9.863 0.739
-10.213 -10.250 0.032
-8.256 -8.805 0.547
-10.584 -10.358 -0.210
-9.078 -10.296 1.208
-8.471 -9.049 0.553
-8.897 -9.345 0.451
-9.937 -10.382 0.460
-9.022 -9.082 0.056
-8.105 -8.950 0.852
-9.875 -10.293 0.413
-6.649 -7.900 1.267
-10.209 -10.296 0.084
-10.209 -10.296 0.084
-11.183 -10.755 -0.424
-10.232 -10.232 -0.004
-10.257 -10.235 -0.025
-10.275 -10.230 -0.047
-11.183 -10.755 -0.424
-11.183 -10.755 -0.424
-8.955 -9.052 0.091
-10.591 -10.303 -0.273
-10.336 -10.229 -0.092
-10.591 -10.304 -0.272
-10.659 -10.303 -0.340
-8.509 -9.030 0.496
-10.336 -10.229 -0.092
-8.661 -9.059 0.381
-8.661 -9.059 0.381
-10.337 -10.229 -0.093
-10.230 -10.232 -0.001
-10.337 -10.229 -0.093
-8.953 -9.054 0.095
-10.793 -10.456 -0.332
-10.120 -10.273 0.158
-9.162 -10.255 1.093
-10.220 -10.234 0.030
-8.518 -9.024 0.482
-10.661 -10.963 0.297
-9.552 -10.693 1.172
-9.871 -10.388 0.532
-10.497 -10.347 -0.135
-8.413 -9.434 0.991
-11.170 -10.758 -0.409
-8.956 -9.051 0.089
-10.256 -10.231 -0.030
-6.446 -7.418 0.982
-10.138 -10.276 0.144
-12.660 -11.807 -0.846
-11.845 -11.418 -0.435
-12.621 -11.584 -1.015
-10.308 -11.109 0.807
-12.621 -11.584 -1.015
-12.599 -11.588 -0.989
-12.599 -11.588 -0.989
-12.621 -11.584 -1.015
-12.621 -11.584 -1.015
-12.621 -11.584 -1.015
-12.621 -11.584 -1.015
-12.945 -11.969 -0.975
-12.599 -11.588 -0.989
-8.726 -9.354 0.608
-12.925 -11.972 -0.953
-12.127 -11.577 -0.555
-12.587 -11.589 -0.976
-12.599 -11.588 -0.989
-12.587 -11.589 -0.976
-12.119 -11.578 -0.545
-12.916 -11.973 -0.943
-12.587 -11.589 -0.976
-12.945 -11.970 -0.974
-12.622 -11.584 -1.015
-12.944 -11.970 -0.975
-12.078 -11.577 -0.505
-12.127 -11.577 -0.554
-12.140 -11.567 -0.577
-12.119 -11.578 -0.544
-8.738 -9.356 0.596
-8.723 -9.355 0.611
-12.599 -11.588 -0.989
-11.081 -11.557 0.477
-12.622 -11.584 -1.015
-12.945 -11.970 -0.975
-12.587 -11.589 -0.976
-12.119 -11.578 -0.545
-8.665 -9.327 0.642
-11.031 -11.543 0.513
-8.643 -9.355 0.691
-12.140 -11.567 -0.577
-12.601 -11.588 -0.990
-12.589 -11.589 -0.978
-12.589 -11.589 -0.978
-12.944 -11.969 -0.975
-12.623 -11.583 -1.017
-8.892 -9.337 0.448
-11.060 -11.564 0.505
-11.795 -11.417 -0.386
-11.288 -11.401 0.102
-8.535 -9.499 0.940
-9.292 -10.558 1.275
-10.367 -11.474 1.126
-12.651 -11.808 -0.836
-8.069 -10.488 2.407
-8.772 -9.318 0.547
-11.825 -11.412 -0.424
-8.271 -9.641 1.375
-11.795 -11.417 -0.386
-10.323 -10.949 0.641
-11.825 -11.412 -0.424
-8.336 -9.592 1.256
-10.323 -10.950 0.643
-7.868 -9.029 1.164
-8.512 -9.028 0.490
-7.890 -9.486 1.597
-7.577 -9.162 1.587
-12.623 -11.583 -1.017
-12.944 -11.969 -0.975
-12.139 -11.567 -0.577
-11.067 -11.562 0.496
-12.486 -11.585 -0.878
-8.893 -9.338 0.448
-8.564 -9.483 0.905
-12.118 -11.578 -0.545
-8.036 -9.208 1.188
-8.757 -9.322 0.567
-12.078 -11.577 -0.506
-12.944 -11.969 -0.975
-8.534 -10.642 2.121
-12.925 -11.972 -0.953
-12.623 -11.583 -1.017
-11.082 -11.557 0.476
-8.320 -9.736 1.415
-9.144 -10.552 1.416
-11.067 -11.562 0.496
-8.527 -9.221 0.710
-12.139 -11.566 -0.578
-8.756 -9.321 0.567
-11.067 -11.562 0.496
-8.872 -9.337 0.468
-11.067 -11.562 0.496
-7.628 -7.730 0.115
-12.925 -11.972 -0.953
-8.320 -9.735 1.415
-8.320 -9.735 1.415
-9.268 -10.563 1.305