-6.458 -7.071 0.624
-5.629 -6.880 1.262
-7.905 -6.783 -1.130
-6.779 -7.111 0.343
-8.075 -6.527 -1.561
-8.075 -6.527 -1.561
-8.075 -6.527 -1.561
-8.276 -6.572 -1.716
-8.276 -6.572 -1.716
-8.075 -6.527 -1.561
-8.075 -6.527 -1.561
-6.517 -7.069 0.563
-8.077 -6.526 -1.564
-8.278 -6.570 -1.720
-8.278 -6.570 -1.720
-8.278 -6.570 -1.720
-8.278 -6.570 -1.720
-8.077 -6.526 -1.564
-8.077 -6.526 -1.564
-8.077 -6.526 -1.564
-8.077 -6.526 -1.564
-8.077 -6.526 -1.564
-6.828 -7.118 0.302
-8.077 -6.526 -1.564
-8.077 -6.526 -1.564
-8.077 -6.526 -1.564
-8.077 -6.526 -1.564
-6.619 -7.085 0.477
-5.314 -5.771 0.468
-5.582 -6.497 0.927
-8.276 -6.574 -1.713
-6.780 -7.111 0.342
-6.162 -6.856 0.704
-6.162 -6.856 0.704
-6.162 -6.856 0.704
-6.162 -6.856 0.704
-5.632 -6.863 1.242
-8.270 -6.583 -1.699
-8.068 -6.547 -1.534
-5.878 -6.136 0.269
-6.162 -6.856 0.704
-5.582 -6.497 0.927
-8.276 -6.574 -1.713
-8.074 -6.533 -1.554
-8.074 -6.533 -1.554
-8.276 -6.574 -1.714
-8.276 -6.574 -1.714
-8.074 -6.533 -1.554
-8.074 -6.533 -1.554
-8.276 -6.574 -1.714
-8.276 -6.573 -1.714
-8.074 -6.533 -1.554
-8.276 -6.573 -1.714
-6.516 -7.069 0.564
-5.773 -6.785 1.022
-8.272 -6.578 -1.706
-8.272 -6.578 -1.706
-8.272 -6.578 -1.706
-8.272 -6.578 -1.706
-8.073 -6.535 -1.551
-6.828 -7.118 0.302
-8.076 -6.526 -1.564
-8.278 -6.570 -1.720
-5.878 -6.135 0.269
-8.278 -6.570 -1.720
-5.878 -6.135 0.269
-5.678 -6.292 0.625
-5.602 -6.136 0.545
-8.278 -6.570 -1.720
-8.278 -6.570 -1.720
-5.582 -6.497 0.927
-8.073 -6.535 -1.551
-8.275 -6.575 -1.711
-8.275 -6.575 -1.712
-8.275 -6.575 -1.711
-8.275 -6.575 -1.711
-8.275 -6.575 -1.711
-6.780 -7.111 0.343
-6.162 -6.856 0.704
-6.162 -6.856 0.704
-8.067 -6.549 -1.531
-8.269 -6.584 -1.697
-8.403 -6.458 -1.960
-8.403 -6.457 -1.960
-8.067 -6.549 -1.531
-6.515 -7.069 0.566
-6.145 -6.998 0.864
-8.267 -6.586 -1.693
-8.401 -6.460 -1.956
-8.267 -6.586 -1.693
-8.267 -6.586 -1.693
-8.267 -6.586 -1.693
-8.267 -6.586 -1.693
-5.582 -6.497 0.927
-5.582 -6.497 0.927
-6.142 -6.979 0.848
-8.073 -6.535 -1.551
-5.878 -6.135 0.269
-6.162 -6.856 0.704
-6.162 -6.856 0.704
-5.684 -6.829 1.156
-5.684 -6.829 1.156
-5.684 -6.829 1.156
-5.684 -6.829 1.156
-5.632 -6.863 1.242
-7.898 -7.609 -0.279
-5.628 -6.290 0.673
-8.165 -5.525 -2.675
-5.667 -7.024 1.367
-5.587 -6.138 0.562
-5.587 -6.138 0.562
-6.123 -6.986 0.874
-6.123 -6.986 0.874
-6.123 -6.986 0.874
-5.747 -6.825 1.088
-5.664 -6.294 0.642
-5.773 -6.545 0.783
-5.773 -6.545 0.783
-5.820 -6.583 0.774
-6.125 -6.986 0.873
-6.044 -6.868 0.835
-5.803 -6.832 1.040
-5.803 -6.832 1.040
-5.803 -6.832 1.040
-8.324 -6.358 -1.982
-5.863 -6.137 0.285
-8.324 -6.358 -1.982
-8.324 -6.358 -1.982
-8.324 -6.358 -1.982
-8.324 -6.358 -1.982
-8.324 -6.358 -1.982
-8.324 -6.358 -1.982
-5.863 -6.137 0.285
-8.324 -6.358 -1.982
-8.324 -6.358 -1.982
-8.168 -5.524 -2.678
-8.325 -6.356 -1.985
-8.072 -6.684 -1.398
-8.072 -6.684 -1.398
-8.329 -6.346 -1.999
-8.329 -6.346 -1.999
-8.329 -6.346 -1.999
-8.329 -6.346 -1.999
-8.329 -6.346 -1.999
-8.173 -5.523 -2.684
-8.173 -5.523 -2.684
-8.072 -6.684 -1.398
-8.072 -6.684 -1.398
-8.072 -6.684 -1.398
-7.817 -6.765 -1.061
-8.329 -6.346 -1.999
-8.329 -6.346 -1.999
-8.174 -5.523 -2.685
-5.864 -6.137 0.285
-5.588 -6.138 0.562
-5.664 -6.294 0.641
-6.498 -7.078 0.592
-5.802 -6.589 0.798
-5.895 -6.906 1.023
-6.127 -7.002 0.886
-5.863 -6.137 0.286
-6.124 -6.985 0.873
-8.072 -6.685 -1.397
-5.613 -6.292 0.690
-5.613 -6.292 0.690
-8.172 -5.523 -2.683
-8.328 -6.348 -1.997
-5.187 -6.193 1.017
-5.607 -6.542 0.946
-5.803 -6.832 1.039
-8.324 -6.357 -1.984
-8.324 -6.357 -1.984
-5.672 -7.023 1.361
-5.587 -6.138 0.562
-5.949 -6.700 0.763
-8.321 -6.362 -1.975
-8.168 -5.524 -2.678
-8.324 -6.358 -1.982
-8.324 -6.358 -1.982
-8.324 -6.358 -1.982
-8.324 -6.358 -1.982
-5.863 -6.137 0.286
-6.124 -6.985 0.872
-6.124 -6.985 0.872
-8.324 -6.358 -1.982
-8.324 -6.358 -1.982
-8.324 -6.358 -1.982
-8.168 -5.524 -2.678
-5.863 -6.137 0.286
-5.949 -6.700 0.762
-6.044 -6.868 0.835
-5.822 -6.582 0.772
-5.949 -6.700 0.762
-5.262 -5.781 0.531
-5.628 -6.290 0.673
-6.124 -6.985 0.872
-5.822 -6.582 0.772
-5.664 -6.294 0.641
-6.044 -6.868 0.835
-6.044 -6.868 0.835
-6.044 -6.868 0.835
-5.628 -6.290 0.673
-5.669 -7.020 1.362
-5.907 -6.901 1.006
-5.664 -6.294 0.641
-5.906 -6.901 1.007
-8.164 -5.525 -2.674
-8.320 -6.366 -1.970
-8.320 -6.366 -1.970
-8.320 -6.366 -1.970
-7.869 -7.618 -0.240
-6.207 -7.000 0.804
-8.168 -5.524 -2.678
-5.606 -6.542 0.947
-5.670 -7.020 1.360
-5.670 -7.020 1.360
-5.670 -7.020 1.360
-5.588 -6.138 0.561
-5.882 -6.896 1.026
-5.587 -6.138 0.562
-8.318 -6.370 -1.964
-8.318 -6.370 -1.964
-8.318 -6.370 -1.965
-7.898 -7.607 -0.280
-8.317 -6.373 -1.960
-7.809 -6.777 -1.039
-8.423 -6.546 -1.890
-8.174 -5.523 -2.686
-8.330 -6.343 -2.004
-8.330 -6.343 -2.004
-8.330 -6.343 -2.004
-5.613 -6.293 0.691
-7.818 -6.763 -1.063
-7.818 -6.763 -1.063
-6.545 -7.088 0.555
-6.545 -7.088 0.555
-5.672 -6.294 0.633
-5.672 -6.294 0.633
-6.117 -6.990 0.885
-6.159 -6.859 0.710
-5.609 -6.137 0.539
-5.609 -6.137 0.539
-5.667 -6.832 1.176
-5.685 -6.293 0.619
-5.685 -6.293 0.619
-5.685 -6.293 0.619
-6.159 -6.859 0.710
-5.836 -6.575 0.751
-6.151 -6.980 0.840
-6.151 -6.980 0.840
-5.648 -6.287 0.650
-8.068 -6.627 -1.452
-8.068 -6.627 -1.452
-8.302 -6.569 -1.745
-8.302 -6.569 -1.745
-8.302 -6.569 -1.745
-8.302 -6.569 -1.745
-8.302 -6.569 -1.745
-5.630 -6.297 0.678
-5.630 -6.297 0.678
-5.630 -6.297 0.678
-5.630 -6.297 0.678
-5.630 -6.297 0.678
-5.630 -6.297 0.678
-5.630 -6.297 0.678
-5.630 -6.297 0.678
-5.886 -6.136 0.261
-5.320 -5.770 0.461
-5.834 -6.575 0.753
-7.896 -7.609 -0.277
-5.888 -6.902 1.026
-5.264 -5.781 0.529
-5.264 -5.781 0.529
-5.354 -6.136 0.793
-8.137 -6.259 -1.896
-5.617 -6.292 0.686
-5.583 -6.163 0.591
-5.617 -6.292 0.686
-5.617 -6.292 0.686
-5.617 -6.292 0.686
-5.617 -6.292 0.686
-5.617 -6.292 0.686
-8.072 -6.741 -1.340
-5.607 -6.542 0.946
-5.586 -6.868 1.293
-5.586 -6.868 1.293
-8.140 -6.243 -1.916
-8.072 -6.741 -1.340
-5.618 -6.292 0.685
-8.360 -6.331 -2.046
-8.360 -6.331 -2.046
-5.266 -6.155 0.899
-5.266 -6.155 0.899
-7.896 -7.608 -0.278
-8.072 -6.741 -1.339
-5.338 -5.808 0.482
-5.872 -6.137 0.277
-5.354 -6.136 0.793
-5.354 -6.136 0.792
-5.670 -6.294 0.635
-6.134 -6.987 0.864
-5.721 -7.867 2.156
-5.584 -6.869 1.296
-5.633 -6.289 0.668
-5.357 -6.509 1.164
-5.872 -6.137 0.277
-6.134 -6.985 0.862
-7.906 -7.606 -0.290
-5.774 -6.546 0.782
-5.286 -6.539 1.263
-5.264 -5.781 0.528
-5.833 -6.582 0.761
-5.633 -6.290 0.668
-5.670 -6.294 0.635
-5.633 -6.290 0.668
-5.670 -6.294 0.635
-5.670 -6.294 0.635
-6.040 -6.871 0.842
-5.865 -6.898 1.045
-6.133 -6.985 0.862
-5.633 -6.290 0.668
-5.264 -5.781 0.528
-5.264 -5.781 0.528
-5.594 -6.138 0.556
-5.594 -6.138 0.556
-5.594 -6.138 0.556
-5.594 -6.138 0.556
-5.594 -6.138 0.556
-5.594 -6.138 0.556
-7.895 -7.609 -0.276
-5.833 -6.582 0.761
-6.133 -6.984 0.862
-5.670 -6.294 0.635
-8.350 -6.352 -2.015
-8.072 -6.741 -1.340
-8.144 -6.221 -1.943
-8.360 -6.330 -2.047
-8.144 -6.220 -1.943
-5.872 -6.137 0.277
-5.355 -6.136 0.792
-5.594 -6.138 0.556
-8.144 -6.221 -1.942
-5.267 -6.155 0.899
-8.360 -6.330 -2.047
-8.360 -6.330 -2.046
-5.872 -6.137 0.277
-5.610 -6.833 1.235
-5.673 -7.019 1.356
-5.906 -6.901 1.006
-8.164 -5.525 -2.674
-7.897 -7.607 -0.280
-5.175 -6.189 1.024
-8.069 -6.687 -1.391
-8.170 -5.523 -2.681
-5.613 -6.293 0.691
-5.613 -6.293 0.691
-8.170 -5.523 -2.681
-8.170 -5.523 -2.681
-8.170 -5.523 -2.681
-5.609 -6.298 0.700
-8.326 -6.353 -1.989
-5.275 -6.539 1.275
-8.170 -5.523 -2.681
-5.264 -6.154 0.901
-5.606 -6.542 0.947
-5.606 -6.542 0.947
-5.664 -6.294 0.640
-5.581 -6.855 1.285
-7.908 -7.606 -0.292
-7.908 -7.606 -0.292
-5.602 -6.868 1.278
-5.664 -6.294 0.641
-5.664 -6.294 0.641
-5.882 -6.897 1.026
-5.089 -5.781 0.703
-5.665 -6.294 0.640
-5.665 -6.294 0.640
-7.908 -7.606 -0.292
-5.668 -7.018 1.361
-5.668 -7.018 1.361
-5.747 -6.825 1.088
-5.774 -6.545 0.782
-5.774 -6.545 0.782
-5.774 -6.545 0.782
-7.868 -7.618 -0.239
-5.354 -6.135 0.793
-5.354 -6.135 0.793
-5.354 -6.135 0.793
-5.354 -6.135 0.793
-5.354 -6.135 0.793
-5.602 -6.868 1.277
-5.602 -6.868 1.277
-7.908 -7.606 -0.292
-7.908 -7.606 -0.292
-7.908 -7.606 -0.292
-5.950 -6.697 0.758
-7.908 -7.606 -0.292
-7.908 -7.606 -0.292
-5.950 -6.697 0.758
-5.354 -6.135 0.793
-5.354 -6.135 0.793
-5.267 -6.204 0.949
-5.262 -5.781 0.530
-5.262 -5.781 0.530
-8.166 -5.525 -2.675
-7.897 -7.607 -0.280
-5.666 -7.019 1.363
-5.666 -7.019 1.363
-5.081 -6.145 1.075
-8.322 -6.362 -1.976
-5.612 -6.293 0.691
-5.264 -6.154 0.901
-7.898 -7.607 -0.280
-7.898 -7.607 -0.280
-7.898 -7.607 -0.280
-7.898 -7.607 -0.280
-7.898 -7.607 -0.280
-7.898 -7.607 -0.280
-7.898 -7.607 -0.280
-5.612 -6.293 0.691
-5.289 -6.521 1.243
-5.365 -6.513 1.159
-6.123 -6.983 0.871
-5.882 -6.897 1.025
-5.262 -5.781 0.530
-5.950 -6.698 0.759
-7.908 -7.606 -0.292
-7.908 -7.606 -0.292
-5.365 -6.513 1.160
-5.665 -7.021 1.366
-6.142 -6.992 0.862
-5.364 -6.513 1.160
-5.364 -6.513 1.160
-5.602 -6.868 1.278
-7.908 -7.606 -0.292
-5.353 -6.135 0.793
-7.897 -7.609 -0.278
-5.262 -5.781 0.531
-5.668 -7.018 1.361
-5.353 -6.135 0.793
-5.602 -6.868 1.278
-5.364 -6.513 1.160
-5.628 -6.290 0.673
-5.628 -6.290 0.673
-6.123 -6.982 0.871
-5.628 -6.290 0.673
-5.628 -6.290 0.673
-5.668 -7.018 1.361
-5.668 -7.018 1.361
-5.668 -7.018 1.361
-7.908 -7.606 -0.292
-7.908 -7.606 -0.292
-7.908 -7.606 -0.292
-5.353 -6.135 0.793
-5.602 -6.868 1.278
-5.882 -6.896 1.026
-5.375 -6.168 0.803
-5.882 -6.896 1.026
-5.374 -6.181 0.817
-5.882 -6.896 1.026
-6.142 -6.993 0.862
-5.628 -6.290 0.673
-5.671 -7.018 1.357
-7.908 -7.606 -0.292
-7.908 -7.606 -0.292
-7.908 -7.606 -0.292
-7.908 -7.606 -0.292
-5.666 -7.018 1.362
-5.170 -6.558 1.399
-5.211 -6.173 0.973
-5.170 -6.558 1.399
-5.305 -5.963 0.668
-5.821 -7.011 1.200
-5.821 -7.011 1.200
-5.821 -7.011 1.200
-5.821 -7.011 1.200
-7.901 -6.831 -1.078
-5.183 -6.173 1.001
-5.821 -7.012 1.201
-7.901 -6.831 -1.078
-7.901 -6.831 -1.077
-7.901 -6.831 -1.078
-7.901 -6.831 -1.077
-7.901 -6.831 -1.078
-5.840 -7.016 1.186
-5.840 -7.016 1.186
-5.228 -6.510 1.293
-5.823 -7.011 1.198
-5.271 -6.467 1.207
-5.823 -7.011 1.198
-6.110 -6.972 0.872
-5.620 -6.898 1.289
-5.364 -6.135 0.782
-5.364 -6.135 0.782
-5.823 -7.011 1.198
-5.823 -7.011 1.198
-5.822 -7.012 1.199
-5.620 -6.898 1.289
-5.822 -7.012 1.199
-5.823 -7.011 1.198
-6.112 -6.971 0.870
-5.823 -7.011 1.198
-5.676 -6.293 0.629
-5.676 -6.293 0.629
-5.620 -6.898 1.289
-6.110 -6.972 0.872
-5.364 -6.135 0.782
-5.364 -6.135 0.782
-5.292 -6.506 1.224
-5.620 -6.898 1.289
-5.316 -6.836 1.531
-5.216 -6.161 0.957
-5.822 -7.011 1.199
-5.822 -7.011 1.199
-5.822 -7.011 1.199
-5.148 -5.792 0.655
-5.823 -7.012 1.198
-5.823 -7.011 1.198
-5.364 -6.135 0.782
-6.110 -6.972 0.872
-5.297 -5.774 0.488
-5.823 -7.011 1.198
-5.306 -5.961 0.665
-5.216 -6.161 0.957
-5.216 -6.161 0.957
-5.309 -5.962 0.664
-5.297 -5.774 0.488
-5.822 -7.011 1.199
-5.620 -6.898 1.289
-7.901 -6.831 -1.077
-5.821 -7.012 1.200
-4.775 -5.484 0.720
-5.820 -7.011 1.201
-5.300 -5.961 0.672
-5.821 -7.011 1.200
-7.900 -6.834 -1.072
-5.821 -7.011 1.200
-5.879 -6.137 0.269
-5.823 -7.011 1.198
-5.823 -7.011 1.198
-5.822 -7.011 1.199
-5.823 -7.011 1.198
-5.297 -5.775 0.489
-5.715 -6.301 0.597
-5.715 -6.301 0.597
-5.715 -6.301 0.597
-5.715 -6.301 0.597
-6.224 -6.929 0.716
-6.224 -6.929 0.716
-6.224 -6.929 0.716
-5.720 -6.154 0.445
-6.044 -6.779 0.745
-5.732 -6.294 0.574
-5.668 -6.291 0.634
-6.044 -6.779 0.745
-6.044 -6.779 0.745
-6.044 -6.779 0.745
-6.044 -6.779 0.745
-6.044 -6.779 0.745
-5.732 -6.294 0.574
-6.225 -6.933 0.719
-6.224 -6.929 0.716
-6.224 -6.929 0.716
-6.044 -6.779 0.745
-5.720 -6.154 0.445
-5.720 -6.154 0.445
-5.720 -6.154 0.445
-6.044 -6.779 0.745
-6.224 -6.929 0.716
-6.044 -6.779 0.745
-5.631 -6.434 0.814
-5.668 -6.291 0.634
-5.716 -6.301 0.596
-5.668 -6.291 0.634
-6.224 -6.929 0.716
-6.044 -6.779 0.745
-6.044 -6.779 0.745
-5.732 -6.294 0.574
-6.225 -6.933 0.719
-5.669 -6.291 0.633
-5.720 -6.154 0.445
-5.720 -6.154 0.445
-5.732 -6.294 0.574
-5.716 -6.301 0.596
-5.668 -6.291 0.634
-5.732 -6.294 0.574
-5.732 -6.294 0.574
-5.732 -6.294 0.574
-5.615 -6.140 0.536
-6.153 -6.973 0.832
-6.044 -6.779 0.745
-6.044 -6.779 0.745
-6.044 -6.779 0.745
-6.044 -6.778 0.745
-6.043 -6.778 0.745
-5.668 -6.291 0.634
-5.668 -6.291 0.634
-5.668 -6.291 0.634
-5.668 -6.291 0.634
-5.720 -6.154 0.445
-6.044 -6.779 0.745
-6.224 -6.929 0.716
-5.720 -6.154 0.445
-5.720 -6.154 0.445
-5.720 -6.154 0.445
-5.720 -6.154 0.445
-6.044 -6.779 0.745
-5.716 -6.301 0.596
-5.722 -6.153 0.443
-5.716 -6.301 0.596
-5.669 -6.291 0.633
-5.716 -6.301 0.596
-6.044 -6.779 0.745
-6.044 -6.779 0.745
-6.044 -6.779 0.745
-5.668 -6.291 0.634
-6.044 -6.778 0.745
-5.722 -6.153 0.443
-5.873 -6.588 0.726
-6.153 -6.973 0.831
-6.224 -6.929 0.716
-6.224 -6.929 0.716
-5.720 -6.154 0.445
-5.631 -6.434 0.814
-5.631 -6.434 0.814
-5.720 -6.154 0.445
-5.722 -6.153 0.443
-6.153 -6.973 0.831
-5.467 -5.866 0.411
-5.669 -6.291 0.633
-5.716 -6.301 0.596
-5.716 -6.301 0.596
-6.044 -6.779 0.745
-6.044 -6.779 0.745
-5.467 -5.866 0.411
-5.716 -6.301 0.596
-5.662 -6.258 0.608
-5.716 -6.301 0.596
-5.716 -6.301 0.596
-5.716 -6.301 0.596
-6.044 -6.779 0.745
-6.044 -6.779 0.745
-6.044 -6.779 0.745
-6.225 -6.933 0.719
-6.043 -6.778 0.745
-6.043 -6.778 0.745
-6.043 -6.778 0.745
-6.044 -6.779 0.745
-6.044 -6.779 0.745
-6.044 -6.779 0.745
-6.044 -6.779 0.745
-6.044 -6.779 0.745
-5.720 -6.154 0.445
-5.720 -6.154 0.445
-5.720 -6.154 0.445
-5.720 -6.154 0.445
-6.044 -6.779 0.745
-6.044 -6.779 0.745
-5.467 -5.866 0.411
-5.467 -5.866 0.411
-5.467 -5.866 0.411
-6.044 -6.779 0.745
-6.044 -6.779 0.745
-5.720 -6.154 0.445
-5.720 -6.154 0.445
-5.368 -6.256 0.900
-5.721 -6.154 0.444
-5.631 -6.434 0.814
-6.045 -6.779 0.744
-6.045 -6.779 0.744
-6.019 -6.780 0.772
-5.722 -6.153 0.442
-5.631 -6.434 0.814
-5.473 -6.635 1.174
-5.631 -6.434 0.814
-5.716 -6.301 0.597
-5.716 -6.301 0.597
-5.716 -6.301 0.597
-5.716 -6.301 0.597
-5.382 -6.133 0.762
-5.668 -6.291 0.634
-6.045 -6.779 0.744
-6.045 -6.779 0.744
-6.045 -6.779 0.744
-6.045 -6.779 0.744
-6.045 -6.778 0.744
-5.721 -6.154 0.444
-5.732 -6.294 0.573
-5.732 -6.294 0.573
-5.732 -6.294 0.573
-6.225 -6.932 0.718
-5.631 -6.434 0.814
-5.716 -6.301 0.597
-6.045 -6.778 0.744
-6.045 -6.779 0.744
-5.473 -6.635 1.173
-5.473 -6.635 1.173
-5.473 -6.635 1.173
-6.045 -6.778 0.744
-5.668 -6.291 0.634
-5.668 -6.291 0.634
-6.045 -6.778 0.744
-6.035 -6.779 0.754
-6.031 -6.778 0.757
-5.653 -6.293 0.651
-6.212 -7.154 0.954
-5.653 -6.293 0.651
-5.653 -6.293 0.651
-5.842 -6.324 0.493
-6.035 -6.778 0.754
-6.036 -6.779 0.754
-5.680 -6.294 0.626
-6.035 -6.778 0.754
-5.842 -6.324 0.493
-6.212 -7.154 0.954
-6.266 -7.125 0.871
-5.997 -6.687 0.702
-6.035 -6.778 0.754
-6.036 -6.779 0.754
-5.602 -6.153 0.563
-6.036 -6.779 0.754
-6.036 -6.779 0.754
-5.711 -6.311 0.611
-5.327 -6.145 0.830
-5.653 -6.293 0.651
-5.678 -6.306 0.640
-5.671 -6.163 0.503
-5.680 -6.294 0.625
-5.680 -6.294 0.625
-5.473 -6.636 1.174
-5.653 -6.293 0.651
-5.842 -6.324 0.492
-5.279 -6.524 1.256
-5.114 -5.842 0.740
-6.036 -6.779 0.753
-5.327 -6.145 0.830
-5.327 -6.145 0.830
-6.036 -6.779 0.753
-4.808 -5.850 1.053
-5.039 -6.241 1.213
-5.627 -6.433 0.817
-5.327 -6.146 0.830
-6.035 -6.778 0.754
-6.036 -6.779 0.753
-6.036 -6.779 0.753
-5.277 -6.527 1.260
-5.277 -6.527 1.260
-6.035 -6.778 0.754
-5.326 -6.147 0.832
-5.277 -6.527 1.260
-5.602 -6.153 0.563
-5.602 -6.153 0.563
-5.653 -6.293 0.651
-6.218 -7.153 0.947
-6.035 -6.778 0.754
-5.680 -6.294 0.625
-6.036 -6.779 0.754
-6.035 -6.778 0.754
-6.036 -6.779 0.754
-5.370 -6.257 0.898
-5.654 -6.293 0.651
-5.654 -6.293 0.651
-5.114 -5.842 0.740
-5.456 -5.872 0.427
-6.036 -6.779 0.753
-5.997 -6.687 0.702
-5.328 -6.145 0.828
-5.654 -6.293 0.651
-5.328 -6.145 0.828
-5.837 -6.322 0.495
-6.036 -6.779 0.753
-5.671 -6.163 0.503
-5.114 -5.842 0.740
-5.114 -5.842 0.740
-5.114 -5.842 0.740
-6.212 -7.154 0.954
-5.653 -6.293 0.651
-5.234 -6.179 0.956
-6.036 -6.779 0.753
-5.472 -6.637 1.176
-5.370 -6.257 0.898
-5.997 -6.687 0.702
-6.036 -6.779 0.753
-6.010 -6.780 0.781
-6.010 -6.780 0.781
-6.036 -6.779 0.753
-6.010 -6.780 0.781
-5.277 -6.527 1.260
-5.277 -6.527 1.260
-6.010 -6.780 0.781
-6.036 -6.779 0.753
-5.456 -5.872 0.427
-5.456 -5.872 0.427
-5.114 -5.842 0.740
-5.370 -6.257 0.898
-5.370 -6.257 0.898
-5.329 -6.145 0.827
-5.370 -6.257 0.898
-5.672 -6.162 0.501
-6.036 -6.779 0.753
-5.678 -6.306 0.640
-5.678 -6.306 0.640
-5.678 -6.306 0.640
-5.039 -6.241 1.213
-5.114 -5.842 0.740
-5.328 -6.145 0.828
-5.458 -6.636 1.189
-5.278 -6.525 1.258
-5.398 -5.784 0.398
-5.654 -6.293 0.651
-6.035 -6.778 0.754
-5.102 -5.932 0.841
-5.279 -6.524 1.256
-6.036 -6.779 0.753
-5.472 -6.637 1.176
-4.854 -5.872 1.030
-5.038 -6.241 1.214
-5.997 -6.687 0.701
-5.997 -6.687 0.701
-5.979 -6.685 0.718
-6.036 -6.778 0.753
-5.997 -6.687 0.701
-5.979 -6.685 0.718
-5.039 -6.240 1.213
-5.356 -6.168 0.824
-5.279 -6.525 1.258
-5.628 -6.432 0.816
-5.678 -6.306 0.640
-5.678 -6.306 0.640
-6.037 -6.779 0.753
-5.369 -6.256 0.899
-5.101 -5.932 0.842
-5.369 -6.256 0.899
-5.369 -6.256 0.899
-5.474 -6.636 1.173
-5.369 -6.256 0.899
-5.101 -5.932 0.842
-6.037 -6.779 0.753
-5.224 -6.890 1.676
-5.224 -6.890 1.676
-5.997 -6.687 0.702
-5.253 -5.960 0.719
-5.347 -6.256 0.920
-5.347 -6.256 0.920
-5.347 -6.256 0.920
-5.347 -6.256 0.920
-5.347 -6.256 0.920
-5.347 -6.256 0.920
-5.079 -5.931 0.863
-5.113 -5.842 0.741
-5.079 -5.931 0.863
-5.079 -5.931 0.863
-5.079 -5.931 0.863
-5.347 -6.256 0.920
-5.347 -6.256 0.920
-6.266 -7.126 0.871
-6.028 -6.778 0.760
-6.028 -6.778 0.760
-5.621 -6.432 0.822
-4.828 -5.865 1.048
-6.028 -6.778 0.760
-5.621 -6.432 0.822
-5.347 -6.256 0.920
-5.347 -6.256 0.920
-5.347 -6.256 0.920
-5.347 -6.256 0.920
-5.347 -6.256 0.920
-5.467 -6.636 1.180
-4.787 -5.845 1.069
-5.347 -6.256 0.920
-5.347 -6.256 0.920
-5.347 -6.256 0.920
-5.008 -6.230 1.233
-5.008 -6.230 1.233
-5.324 -6.146 0.833
-5.990 -6.687 0.708
-5.347 -6.256 0.920
-4.787 -5.845 1.069
-5.347 -6.256 0.920
-5.989 -6.687 0.709
-6.028 -6.778 0.761
-5.264 -6.525 1.272
-5.324 -6.146 0.833
-5.264 -6.525 1.272
-6.212 -7.155 0.955
-6.212 -7.155 0.955
-5.016 -6.240 1.234
-5.236 -6.884 1.658
-5.348 -6.256 0.919
-5.669 -6.162 0.504
-5.447 -6.634 1.198
-4.829 -5.865 1.047
-5.347 -6.256 0.920
-4.829 -5.865 1.047
-5.467 -6.636 1.180
-5.347 -6.256 0.920
-5.018 -6.239 1.233
-5.018 -6.239 1.233
-5.347 -6.256 0.920
-5.018 -6.239 1.233
-6.027 -6.778 0.761
-5.016 -6.240 1.235
-5.016 -6.240 1.235
-5.347 -6.256 0.920
-5.347 -6.256 0.920
-6.027 -6.778 0.761
-6.027 -6.778 0.761
-4.828 -5.865 1.048
-6.028 -6.778 0.760
-6.028 -6.778 0.760
-5.347 -6.256 0.920
-5.989 -6.687 0.709
-5.989 -6.687 0.709
-5.621 -6.432 0.822
-5.347 -6.256 0.920
-4.829 -5.865 1.047
-5.990 -6.687 0.708
-6.027 -6.778 0.761
-5.264 -6.525 1.272
-4.828 -5.865 1.048
-4.828 -5.865 1.048
-5.621 -6.432 0.822
-6.028 -6.778 0.760
-5.466 -6.637 1.182
-5.959 -6.683 0.736
-5.467 -6.636 1.180
-5.467 -6.636 1.180
-5.997 -6.778 0.792
-5.053 -6.249 1.207
-5.053 -6.249 1.207
-5.347 -6.256 0.920
-4.829 -5.865 1.047
-5.467 -6.636 1.180
-5.008 -6.230 1.233
-5.990 -6.687 0.708
-4.829 -5.865 1.047
-4.844 -5.872 1.039
-5.978 -6.685 0.719
-5.278 -6.525 1.258
-4.806 -5.850 1.055
-5.038 -6.241 1.214
-5.457 -6.636 1.190
-5.368 -6.257 0.900
-4.732 -5.729 1.008
-5.368 -6.257 0.901
-5.326 -6.146 0.831
-5.326 -6.146 0.831
-5.038 -6.241 1.214
-5.224 -6.890 1.675
-5.279 -6.524 1.256
-5.996 -6.687 0.702
-5.100 -5.932 0.843
-5.996 -6.687 0.702
-5.996 -6.687 0.702
-5.996 -6.687 0.702
-5.100 -5.932 0.843
-5.100 -5.932 0.843
-5.100 -5.932 0.843
-5.326 -6.146 0.831
-5.996 -6.687 0.702
-5.996 -6.687 0.702
-4.853 -5.872 1.031
-5.038 -6.241 1.214
-5.278 -6.525 1.258
-5.368 -6.257 0.900
-5.224 -6.890 1.675
-5.368 -6.257 0.900
-5.026 -6.232 1.217
-5.368 -6.257 0.900
-5.368 -6.257 0.900
-5.368 -6.257 0.900
-5.996 -6.687 0.702
-5.368 -6.257 0.900
-5.368 -6.257 0.900
-5.099 -5.932 0.844
-5.996 -6.687 0.703
-5.996 -6.687 0.703
-4.886 -6.291 1.416
-5.390 -6.254 0.875
-5.390 -6.254 0.875
-5.460 -6.630 1.181
-4.895 -6.322 1.438
-5.391 -6.254 0.874
-5.391 -6.254 0.874
-5.095 -6.243 1.160
-5.278 -5.957 0.691
-5.968 -6.681 0.724
-4.857 -5.855 1.009
-4.857 -5.855 1.009
-5.959 -6.680 0.732
-5.273 -6.879 1.615
-4.816 -5.835 1.029
-6.030 -6.773 0.755
-4.857 -5.855 1.009
-7.902 -7.607 -0.284
-7.935 -7.611 -0.313
-7.935 -7.611 -0.313
-7.935 -7.611 -0.313
-7.935 -7.611 -0.313
-7.935 -7.611 -0.313
-7.935 -7.611 -0.313
-7.935 -7.611 -0.313
-7.899 -7.607 -0.281
-7.935 -7.611 -0.313
-7.935 -7.611 -0.313
-7.899 -7.607 -0.281
-7.899 -7.607 -0.281
-7.935 -7.611 -0.313
-7.899 -7.607 -0.281
-7.688 -7.106 -0.572
-7.899 -7.607 -0.281
-6.787 -7.070 0.294
-6.798 -7.071 0.284
-7.899 -7.607 -0.282
-7.899 -7.607 -0.282
-6.798 -7.071 0.284
-6.798 -7.071 0.284
-7.899 -7.607 -0.282
-6.798 -7.071 0.284
-7.899 -7.607 -0.282
-7.899 -7.607 -0.282
-6.798 -7.071 0.284
-7.899 -7.607 -0.282
-7.899 -7.607 -0.281
-7.899 -7.607 -0.282
-5.725 -6.590 0.875
-7.899 -7.607 -0.282
-7.899 -7.607 -0.282
-7.935 -7.611 -0.313
-7.899 -7.607 -0.281
-7.899 -7.607 -0.281
-7.899 -7.607 -0.281
-7.899 -7.607 -0.281
-7.899 -7.607 -0.281
-7.899 -7.607 -0.281
-7.935 -7.611 -0.313
-6.787 -7.070 0.294
-8.289 -6.447 -1.857
-8.289 -6.447 -1.857
-8.289 -6.447 -1.857
-7.893 -7.608 -0.274
-7.893 -7.608 -0.274
-7.893 -7.608 -0.274
-7.893 -7.608 -0.274
-7.685 -7.107 -0.568
-6.793 -7.071 0.288
-7.893 -7.608 -0.274
-7.893 -7.608 -0.274
-5.609 -6.622 1.024
-7.893 -7.608 -0.274
-7.893 -7.608 -0.274
-7.893 -7.608 -0.274
-7.893 -7.608 -0.274
-7.893 -7.608 -0.274
-7.893 -7.608 -0.274
-7.893 -7.608 -0.274
-7.893 -7.608 -0.274
-7.650 -7.101 -0.537
-7.650 -7.101 -0.537
-7.929 -7.612 -0.306
-7.929 -7.612 -0.306
-7.929 -7.612 -0.306
-7.893 -7.608 -0.274
-6.751 -7.157 0.417
-7.893 -7.608 -0.274
-7.443 -7.164 -0.267
-7.893 -7.608 -0.274
-7.893 -7.608 -0.274
-7.893 -7.608 -0.274
-5.633 -6.790 1.169
-7.893 -7.608 -0.274
-7.893 -7.608 -0.274
-7.893 -7.608 -0.274
-7.893 -7.608 -0.274
-7.893 -7.608 -0.274
-7.893 -7.608 -0.274
-7.893 -7.608 -0.274
-7.893 -7.608 -0.274
-7.893 -7.608 -0.274
-7.685 -7.107 -0.568
-7.893 -7.608 -0.274
-7.893 -7.608 -0.274
-7.891 -7.608 -0.272
-7.893 -7.608 -0.274
-5.198 -6.162 0.975
-5.198 -6.162 0.975
-7.443 -7.164 -0.267
-7.929 -7.612 -0.306
-7.929 -7.612 -0.306
-7.893 -7.608 -0.274
-7.685 -7.107 -0.568
-7.929 -7.612 -0.306
-7.929 -7.612 -0.306
-7.893 -7.608 -0.274
-7.893 -7.608 -0.274
-7.893 -7.608 -0.274
-7.893 -7.608 -0.274
-7.893 -7.608 -0.274
-7.901 -7.624 -0.267
-7.893 -7.608 -0.274
-6.793 -7.071 0.288
-6.793 -7.071 0.288
-7.893 -7.608 -0.274
-7.443 -7.164 -0.267
-7.893 -7.608 -0.274
-7.893 -7.608 -0.274
-7.893 -7.608 -0.274
-7.893 -7.608 -0.274
-7.893 -7.608 -0.274
-7.893 -7.608 -0.274
-7.893 -7.608 -0.274
-7.893 -7.608 -0.274
-7.893 -7.608 -0.274
-7.893 -7.608 -0.274
-7.893 -7.608 -0.274
-7.893 -7.608 -0.274
-7.893 -7.608 -0.274
-7.929 -7.612 -0.306
-7.685 -7.107 -0.568
-7.893 -7.608 -0.274
-7.893 -7.608 -0.274
-7.893 -7.608 -0.274
-7.893 -7.608 -0.274
-7.893 -7.608 -0.274
-6.751 -7.157 0.417
-6.493 -6.863 0.381
-5.907 -6.955 1.059
-5.907 -6.955 1.058
-7.893 -7.608 -0.274
-7.893 -7.608 -0.274
-7.893 -7.608 -0.274
-7.893 -7.608 -0.274
-7.893 -7.608 -0.274
-7.893 -7.608 -0.274
-7.929 -7.612 -0.306
-7.685 -7.107 -0.568
-7.685 -7.107 -0.568
-7.893 -7.608 -0.274
-7.411 -7.160 -0.240
-7.891 -7.608 -0.272
-7.893 -7.608 -0.274
-5.198 -6.162 0.975
-7.893 -7.608 -0.274
-7.893 -7.608 -0.274
-7.893 -7.608 -0.274
-7.929 -7.612 -0.306
-7.893 -7.608 -0.274
-7.893 -7.608 -0.274
-7.893 -7.608 -0.274
-7.685 -7.107 -0.568
-7.893 -7.608 -0.274
-7.893 -7.608 -0.274
-7.893 -7.608 -0.274
-7.893 -7.608 -0.274
-7.893 -7.608 -0.274
-7.893 -7.608 -0.274
-7.893 -7.608 -0.274
-7.893 -7.608 -0.274
-5.623 -6.800 1.188
-7.893 -7.608 -0.274
-7.893 -7.608 -0.274
-5.623 -6.800 1.188
-7.891 -7.608 -0.272
-7.893 -7.608 -0.274
-7.650 -7.101 -0.537
-7.893 -7.608 -0.274
-7.893 -7.608 -0.274
-7.893 -7.608 -0.274
-7.893 -7.608 -0.274
-7.893 -7.608 -0.274
-7.901 -7.606 -0.284
-7.901 -7.606 -0.284
-7.901 -7.606 -0.284
-7.901 -7.606 -0.284
-7.934 -7.611 -0.313
-7.897 -7.607 -0.279
-7.617 -7.113 -0.493
-7.899 -7.607 -0.282
-7.652 -7.100 -0.541
-7.935 -7.611 -0.313
-7.899 -7.607 -0.282
-6.798 -7.071 0.284
-7.688 -7.106 -0.571
-7.935 -7.611 -0.313
-7.935 -7.611 -0.313
-7.935 -7.611 -0.313
-7.935 -7.611 -0.313
-7.935 -7.611 -0.313
-7.899 -7.607 -0.282
-7.935 -7.611 -0.313
-5.648 -6.767 1.130
-5.648 -6.767 1.130
-5.659 -6.758 1.110
-5.659 -6.758 1.110
-5.659 -6.758 1.110
-7.899 -7.607 -0.282
-7.899 -7.607 -0.282
-7.899 -7.607 -0.282
-5.648 -6.767 1.130
-7.935 -7.611 -0.313
-7.935 -7.611 -0.313
-7.935 -7.611 -0.313
-7.935 -7.611 -0.313
-7.935 -7.611 -0.313
-7.899 -7.607 -0.282
-7.688 -7.106 -0.571
-7.935 -7.611 -0.313
-6.798 -7.071 0.284
-7.899 -7.607 -0.282
-5.682 -7.022 1.349
-7.899 -7.607 -0.282
-7.899 -7.607 -0.282
-7.899 -7.607 -0.282
-5.649 -6.767 1.130
-7.899 -7.607 -0.282
-7.688 -7.106 -0.572
-7.688 -7.106 -0.572
-7.688 -7.106 -0.572
-7.688 -7.106 -0.572
-7.899 -7.607 -0.282
-7.899 -7.607 -0.282
-7.899 -7.607 -0.282
-7.899 -7.607 -0.282
-5.726 -6.590 0.875
-7.899 -7.607 -0.282
-7.899 -7.607 -0.282
-7.688 -7.106 -0.572
-7.899 -7.607 -0.282
-7.897 -7.607 -0.280
-7.899 -7.607 -0.282
-7.899 -7.607 -0.282
-7.899 -7.607 -0.282
-7.899 -7.607 -0.282
-7.899 -7.607 -0.282
-7.899 -7.607 -0.282
-7.935 -7.611 -0.313
-7.899 -7.607 -0.282
-7.688 -7.106 -0.572
-7.688 -7.106 -0.572
-7.653 -7.100 -0.541
-7.688 -7.106 -0.572
-7.450 -7.164 -0.275
-7.935 -7.611 -0.313
-7.935 -7.611 -0.313
-7.935 -7.611 -0.313
-7.899 -7.607 -0.282
-7.688 -7.106 -0.572
-7.899 -7.607 -0.282
-7.899 -7.607 -0.282
-7.899 -7.607 -0.282
-7.899 -7.607 -0.282
-7.899 -7.607 -0.282
-7.899 -7.607 -0.282
-7.899 -7.607 -0.282
-7.899 -7.607 -0.282
-7.899 -7.607 -0.282
-7.688 -7.106 -0.572
-7.899 -7.607 -0.282
-7.899 -7.607 -0.282
-7.899 -7.607 -0.282
-5.659 -6.757 1.109
-7.688 -7.106 -0.572
-7.899 -7.607 -0.282
-7.899 -7.607 -0.282
-7.899 -7.607 -0.282
-7.899 -7.607 -0.282
-5.659 -6.758 1.110
-5.649 -6.767 1.130
-5.659 -6.757 1.109
-7.688 -7.106 -0.572
-6.759 -7.156 0.408
-7.899 -7.607 -0.282
-7.899 -7.607 -0.282
-7.654 -7.118 -0.524
-7.410 -7.174 -0.226
-7.654 -7.118 -0.524
-7.410 -7.174 -0.226
-7.654 -7.118 -0.524
-5.649 -6.767 1.130
-7.907 -7.622 -0.274
-7.899 -7.607 -0.282
-7.899 -7.607 -0.282
-7.899 -7.607 -0.282
-5.197 -6.159 0.974
-5.197 -6.159 0.974
-7.897 -7.607 -0.279
-7.899 -7.607 -0.282
-7.899 -7.607 -0.282
-7.899 -7.607 -0.282
-7.899 -7.607 -0.282
-7.899 -7.607 -0.282
-7.688 -7.106 -0.571
-7.897 -7.607 -0.279
-7.899 -7.607 -0.282
-7.899 -7.607 -0.282
-7.688 -7.106 -0.571
-7.871 -7.618 -0.242
-7.899 -7.607 -0.282
-7.450 -7.164 -0.275
-5.659 -6.758 1.110
-7.652 -7.100 -0.541
-7.652 -7.100 -0.541
-7.652 -7.100 -0.541
-7.652 -7.100 -0.541
-7.899 -7.607 -0.282
-7.899 -7.607 -0.282
-7.652 -7.100 -0.541
-5.659 -6.757 1.110
-7.899 -7.607 -0.282
-7.899 -7.607 -0.282
-7.899 -7.607 -0.282
-7.899 -7.607 -0.282
-7.899 -7.607 -0.282
-7.897 -7.607 -0.279
-7.899 -7.607 -0.282
-7.617 -7.113 -0.493
-7.899 -7.607 -0.282
-7.688 -7.106 -0.571
-7.688 -7.106 -0.572
-7.899 -7.607 -0.282
-5.950 -6.257 0.318
-5.950 -6.257 0.318
-7.653 -7.118 -0.524
-7.653 -7.118 -0.524
-7.653 -7.118 -0.524
-7.688 -7.106 -0.571
-7.653 -7.118 -0.524
-7.899 -7.607 -0.282
-7.899 -7.607 -0.282
-7.688 -7.106 -0.571
-7.935 -7.611 -0.313
-7.899 -7.607 -0.282
-7.899 -7.607 -0.282
-7.899 -7.607 -0.282
-7.899 -7.607 -0.282
-5.648 -6.767 1.130
-7.935 -7.611 -0.313
-7.935 -7.611 -0.313
-7.899 -7.607 -0.282
-7.652 -7.100 -0.541
-7.899 -7.607 -0.282
-7.871 -7.618 -0.242
-7.899 -7.607 -0.282
-7.897 -7.607 -0.279
-7.450 -7.164 -0.275
-7.935 -7.611 -0.313
-7.653 -7.118 -0.524
-5.648 -6.767 1.130
-7.935 -7.611 -0.313
-7.688 -7.106 -0.572
-7.935 -7.611 -0.313
-7.935 -7.611 -0.313
-7.935 -7.611 -0.313
-7.935 -7.611 -0.313
-7.899 -7.607 -0.282
-7.688 -7.106 -0.571
-7.688 -7.106 -0.571
-7.653 -7.118 -0.524
-7.653 -7.118 -0.524
-7.653 -7.118 -0.524
-7.653 -7.118 -0.524
-7.688 -7.106 -0.571
-7.652 -7.100 -0.541
-5.659 -6.758 1.110
-7.935 -7.611 -0.313
-7.418 -7.160 -0.247
-7.450 -7.164 -0.275
-7.899 -7.607 -0.282
-7.935 -7.611 -0.313
-7.899 -7.607 -0.282
-7.688 -7.106 -0.572
-7.688 -7.106 -0.572
-7.899 -7.607 -0.282
-7.935 -7.611 -0.313
-7.899 -7.607 -0.282
-7.935 -7.611 -0.313
-7.688 -7.106 -0.572
-7.899 -7.607 -0.282
-7.899 -7.607 -0.282
-7.688 -7.106 -0.571
-7.935 -7.611 -0.313
-7.935 -7.611 -0.313
-7.899 -7.607 -0.282
-7.899 -7.607 -0.282
-7.688 -7.106 -0.572
-7.688 -7.106 -0.572
-7.935 -7.611 -0.313
-7.935 -7.611 -0.313
-7.935 -7.611 -0.313
-7.899 -7.607 -0.282
-7.935 -7.611 -0.313
-7.688 -7.106 -0.572
-7.653 -7.118 -0.524
-7.653 -7.118 -0.524
-7.653 -7.118 -0.524
-7.652 -7.100 -0.541
-7.935 -7.611 -0.313
-7.688 -7.106 -0.572
-7.688 -7.106 -0.572
-7.899 -7.607 -0.282
-7.899 -7.607 -0.282
-5.615 -6.649 1.046
-5.615 -6.649 1.046
-7.935 -7.611 -0.313
-7.901 -7.606 -0.284
-7.421 -7.159 -0.251
-7.653 -7.118 -0.524
-7.688 -7.106 -0.571
-7.652 -7.101 -0.541
-7.652 -7.100 -0.541
-7.934 -7.611 -0.313
-7.653 -7.118 -0.524
-7.688 -7.106 -0.571
-7.652 -7.100 -0.541
-7.934 -7.611 -0.313
-7.688 -7.106 -0.571
-7.899 -7.607 -0.281
-7.418 -7.160 -0.247
-7.899 -7.607 -0.281
-7.899 -7.607 -0.281
-7.895 -7.398 -0.486
-7.895 -7.398 -0.486
-7.895 -7.398 -0.486
-7.895 -7.398 -0.486
-7.895 -7.398 -0.486
-8.032 -7.339 -0.682
-8.015 -7.338 -0.666
-8.042 -7.338 -0.693
-8.022 -7.339 -0.672
-8.029 -7.339 -0.679
-8.012 -7.338 -0.663
-8.012 -7.338 -0.663
-8.029 -7.339 -0.679
-8.012 -7.338 -0.663
-8.023 -7.337 -0.675
-8.029 -7.339 -0.679
-8.012 -7.338 -0.663
-8.029 -7.339 -0.679
-8.012 -7.338 -0.663
-8.040 -7.338 -0.691
-8.040 -7.338 -0.691
-8.012 -7.338 -0.663
-8.012 -7.338 -0.663
-8.023 -7.337 -0.675
-8.022 -7.339 -0.672
-8.012 -7.338 -0.663
-8.012 -7.338 -0.663
-8.012 -7.338 -0.663
-8.040 -7.338 -0.691
-8.040 -7.338 -0.691
-8.040 -7.338 -0.691
-8.012 -7.338 -0.663
-8.012 -7.338 -0.663
-8.022 -7.339 -0.672
-8.012 -7.338 -0.663
-8.012 -7.338 -0.663
-8.029 -7.339 -0.679
-8.040 -7.338 -0.691
-8.022 -7.339 -0.672
-8.022 -7.339 -0.672
-8.022 -7.339 -0.672
-8.040 -7.338 -0.691
-8.040 -7.338 -0.691
-8.022 -7.339 -0.672
-8.029 -7.339 -0.679
-8.040 -7.338 -0.691
-8.040 -7.338 -0.691
-8.040 -7.338 -0.691