-7.780 -7.426 -0.344
-8.155 -9.330 1.183
-8.155 -9.334 1.186
-8.154 -9.338 1.192
-12.997 -5.206 -7.794
-8.451 -9.678 1.236
-6.699 -8.686 1.977
-8.451 -9.678 1.236
-8.451 -9.678 1.236
-11.446 -4.209 -7.229
-6.699 -8.686 1.977
-11.601 -4.158 -7.435
-8.451 -9.678 1.236
-11.446 -4.209 -7.228
-11.121 -4.188 -6.925
-8.159 -9.213 1.061
-11.121 -4.189 -6.924
-6.701 -8.686 1.975
-8.435 -9.758 1.330
-6.701 -8.686 1.975
-13.516 -6.563 -6.945
-8.492 -9.606 1.121
-11.292 -4.259 -7.024
-8.492 -9.606 1.121
-6.701 -8.686 1.975
-7.515 -10.425 2.901
-8.428 -9.705 1.285
-13.167 -5.788 -7.386
-7.782 -7.426 -0.346
-11.292 -4.259 -7.025
-8.492 -9.606 1.121
-13.518 -6.558 -6.952
-8.436 -9.758 1.330
-13.518 -6.558 -6.952
-13.518 -6.557 -6.953
-13.519 -6.557 -6.953
-7.561 -9.048 1.492
-7.516 -10.425 2.900
-13.511 -6.573 -6.930
-8.436 -9.758 1.330
-14.405 -6.408 -7.988
-11.537 -4.195 -7.333
-11.369 -4.125 -7.236
-13.528 -6.552 -6.968
-7.516 -10.424 2.899
-7.516 -10.424 2.899
-6.666 -8.632 1.963
-11.537 -4.195 -7.333
-8.162 -9.213 1.058
-13.528 -6.557 -6.962
-11.126 -4.189 -6.929
-6.152 -8.107 1.923
-8.531 -8.918 0.391
-10.674 -6.272 -4.406
-7.784 -7.427 -0.346
-8.431 -9.699 1.278
-8.162 -9.212 1.057
-7.727 -7.747 0.028
-4.836 -7.905 3.084
-14.266 -6.376 -7.880
-7.564 -9.049 1.491
-11.617 -4.155 -7.454
-6.028 -8.071 2.012
-11.307 -4.257 -7.043
-8.164 -9.212 1.055
-7.563 -9.047 1.490
-4.836 -7.905 3.084
-13.536 -6.537 -6.991
-8.109 -9.214 1.111
-8.501 -9.604 1.111
-8.164 -9.212 1.055
-13.536 -6.555 -6.973
-7.044 -8.125 1.054
-8.164 -9.212 1.055
-8.501 -9.604 1.111
-8.538 -8.710 0.181
-11.617 -4.155 -7.453
-7.563 -9.048 1.491
-8.109 -9.214 1.111
-11.617 -4.155 -7.454
-6.673 -8.630 1.954
-13.536 -6.555 -6.973
-7.044 -8.125 1.054
-5.109 -8.151 3.053
-7.045 -8.125 1.054
-11.241 -4.294 -6.940
-8.501 -9.604 1.111
-8.164 -9.210 1.054
-13.047 -6.628 -6.410
-6.464 -7.713 1.251
-11.308 -4.256 -7.044
-13.537 -6.555 -6.974
-8.533 -9.614 1.089
-7.045 -8.125 1.053
-6.499 -7.649 1.150
-8.480 -9.766 1.293
-13.536 -6.554 -6.974
-7.045 -8.125 1.053
-5.278 -8.253 2.986
-8.109 -9.213 1.111
-13.541 -6.552 -6.981
-8.603 -8.731 0.138
-4.205 -6.580 2.390
-7.786 -7.425 -0.351
-13.352 -6.552 -6.791
-8.541 -9.616 1.082
-6.522 -9.829 3.313
-13.545 -6.548 -6.988
-6.303 -9.027 2.740
-8.650 -8.745 0.105
-6.726 -8.682 1.945
-11.627 -4.149 -7.470
-13.068 -6.615 -6.444
-7.787 -7.426 -0.352
-11.562 -4.185 -7.368
-8.689 -8.784 0.102
-8.411 -8.497 0.095
-13.549 -6.546 -6.995
-13.366 -6.554 -6.803
-13.549 -6.543 -6.998
-7.787 -7.427 -0.351
-8.308 -8.467 0.168
-13.549 -6.550 -6.991
-6.776 -10.414 3.632
-8.166 -9.211 1.052
-13.068 -6.615 -6.444
-11.391 -4.114 -7.269
-13.549 -6.551 -6.990
-4.662 -7.914 3.267
-4.404 -7.805 3.414
-6.296 -8.954 2.671
-11.392 -4.114 -7.269
-13.550 -6.550 -6.991
-3.941 -6.704 2.777
-11.562 -4.185 -7.368
-6.175 -8.098 1.892
-13.365 -6.557 -6.800
-4.147 -6.937 2.803
-13.549 -6.548 -6.993
-5.113 -8.125 3.023
-3.941 -6.703 2.777
-7.731 -7.746 0.023
-14.288 -6.372 -7.907
-8.509 -9.605 1.104
-7.051 -8.122 1.043
-11.391 -4.115 -7.269
-11.562 -4.185 -7.369
-8.559 -8.712 0.163
-13.549 -6.550 -6.991
-13.549 -6.551 -6.990
-11.562 -4.185 -7.368
-13.409 -6.523 -6.878
-12.163 -5.216 -6.954
-5.671 -7.467 1.807
-5.986 -8.856 2.877
-5.969 -9.136 3.183
-7.424 -8.942 1.530
-5.283 -8.261 2.989
-8.197 -9.495 1.306
-7.787 -7.426 -0.351
-8.451 -9.754 1.311
-6.034 -8.067 2.001
-13.361 -6.558 -6.795
-6.531 -9.846 3.320
-6.153 -8.690 2.526
-6.926 -10.411 3.484
-13.408 -6.524 -6.876
-13.549 -6.549 -6.992
-8.452 -9.755 1.311
-11.316 -4.238 -7.069
-6.309 -10.188 3.847
-12.308 -5.119 -7.202
-4.403 -7.805 3.415
-8.557 -8.712 0.165
-7.568 -9.047 1.485
-11.561 -4.185 -7.368
-6.153 -8.652 2.477
-7.787 -7.426 -0.352
-14.288 -6.367 -7.912
-6.280 -8.954 2.687
-13.550 -6.550 -6.991
-13.550 -6.550 -6.991
-5.893 -9.059 3.177
-6.515 -7.646 1.131
-6.161 -8.690 2.519
-6.153 -8.652 2.478
-6.404 -7.608 1.199
-6.034 -8.067 2.001
-13.550 -6.550 -6.991
-13.481 -6.563 -6.909
-5.472 -8.736 3.261
-13.550 -6.554 -6.988
-12.435 -3.892 -8.535
-7.570 -9.047 1.483
-13.409 -6.523 -6.878
-11.628 -4.149 -7.471
-8.452 -9.755 1.311
-4.662 -7.914 3.266
-5.696 -8.839 3.156
-13.409 -6.523 -6.877
-6.300 -8.671 2.367
-13.408 -6.525 -6.874
-13.549 -6.552 -6.989
-11.561 -4.185 -7.367
-6.929 -10.410 3.479
-6.176 -8.724 2.539
-13.087 -6.574 -6.504
-13.530 -6.549 -6.972
-11.618 -4.153 -7.456
-6.307 -10.186 3.847
-6.307 -10.186 3.847
-7.370 -8.933 1.575
-6.248 -8.953 2.718
-8.445 -9.754 1.317
-6.519 -9.876 3.366
-6.545 -7.563 1.007
-13.387 -6.523 -6.856
-8.487 -9.766 1.286
-5.822 -7.333 1.528
-7.051 -8.121 1.043
-6.303 -7.538 1.248
-6.174 -8.712 2.525
-7.874 -8.097 0.202
-6.678 -8.624 1.943
-13.341 -6.508 -6.824
-4.620 -7.459 2.851
-4.570 -7.378 2.821
-5.781 -8.663 2.869
-13.385 -6.523 -6.854
-12.566 -4.992 -7.579
-8.439 -9.665 1.235
-13.385 -6.523 -6.854
-11.550 -4.187 -7.355
-8.163 -9.211 1.055
-6.157 -8.691 2.523
-5.113 -8.156 3.055
-6.303 -7.536 1.247
-5.118 -8.144 3.036
-13.387 -6.523 -6.855
-13.387 -6.523 -6.855
-13.535 -6.552 -6.975
-5.959 -8.853 2.902
-8.448 -9.722 1.282
-6.694 -10.192 3.474
-6.528 -9.845 3.322
-11.381 -4.115 -7.258
-6.069 -8.062 1.962
-6.179 -8.726 2.538
-13.343 -6.553 -6.781
-13.535 -6.553 -6.974
-6.153 -8.651 2.478
-7.785 -7.425 -0.350
-11.244 -4.289 -6.947
-13.343 -6.551 -6.784
-14.275 -6.371 -7.895
-13.545 -6.555 -6.982
-5.694 -8.739 3.042
-13.396 -6.521 -6.866
-5.959 -8.853 2.901
-6.411 -7.553 1.130
-13.399 -6.521 -6.869
-13.545 -6.549 -6.988
-8.514 -8.698 0.194
-12.283 -5.032 -7.258
-4.220 -6.503 2.297
-5.777 -7.326 1.565
-5.992 -8.701 2.700
-11.625 -4.150 -7.467
-13.099 -6.583 -6.507
-6.776 -10.415 3.632
-8.542 -9.981 1.429
-6.548 -7.561 1.000
-11.625 -4.150 -7.466
-6.301 -8.670 2.366
-11.176 -5.160 -6.100
-8.508 -9.606 1.106
-12.090 -4.862 -7.252
-6.519 -7.644 1.124
-5.779 -7.326 1.563
-6.183 -8.725 2.534
-13.545 -6.550 -6.986
-7.730 -7.746 0.023
-5.302 -7.336 2.046
-8.694 -8.793 0.106
-11.386 -4.116 -7.262
-14.276 -6.370 -7.897
-5.279 -8.254 2.986
-6.159 -8.691 2.522
-6.548 -7.559 1.000
-5.850 -8.574 2.733
-6.175 -8.098 1.892
-8.591 -8.711 0.131
-6.519 -7.642 1.122
-5.302 -7.337 2.046
-7.730 -7.745 0.023
-13.397 -6.521 -6.867
-13.397 -6.521 -6.867
-5.186 -7.274 2.076
-6.071 -8.082 1.978
-6.071 -8.082 1.978
-11.556 -4.187 -7.361
-7.658 -8.033 0.371
-6.880 -10.439 3.559
-13.546 -6.551 -6.987
-5.741 -7.575 1.847
-6.154 -8.652 2.477
-6.107 -8.096 1.955
-4.404 -7.805 3.415
-6.519 -7.644 1.124
-5.681 -7.638 1.928
-5.532 -8.740 3.205
-13.551 -6.549 -6.994
-6.107 -8.096 1.955
-11.562 -4.184 -7.370
-12.969 -5.285 -7.688
-13.366 -6.563 -6.795
-7.053 -8.122 1.042
-6.154 -8.652 2.477
-11.255 -4.287 -6.961
-7.411 -8.943 1.544
-5.187 -7.274 2.075
-6.632 -8.926 2.306
-8.174 -7.817 -0.351
-13.410 -6.522 -6.880
-7.731 -7.746 0.022
-13.551 -6.552 -6.991
-6.680 -8.623 1.940
-4.663 -7.914 3.266
-6.412 -7.553 1.129
-7.425 -8.942 1.528
-11.562 -4.185 -7.369
-6.680 -8.623 1.939
-6.710 -8.943 2.246
-6.384 -7.599 1.211
-7.788 -7.426 -0.352
-6.412 -7.552 1.128
-6.550 -7.561 0.999
-5.667 -8.334 2.676
-5.719 -9.279 3.571
-5.670 -7.467 1.807
-7.424 -8.942 1.529
-7.409 -8.943 1.545
-6.492 -8.644 2.148
-13.070 -6.614 -6.446
-13.410 -6.522 -6.879
-5.696 -8.839 3.156
-13.239 -6.551 -6.680
-6.306 -7.534 1.241
-6.303 -9.015 2.730
-6.550 -7.562 1.000
-13.412 -6.522 -6.881
-7.788 -7.427 -0.351
-7.788 -7.426 -0.352
-13.410 -6.522 -6.879
-13.366 -6.553 -6.805
-13.373 -6.529 -6.836
-5.982 -7.545 1.570
-6.035 -8.067 2.000
-11.740 -5.053 -6.732
-4.404 -7.805 3.414
-6.153 -8.652 2.477
-5.916 -8.830 2.925
-5.262 -7.250 1.976
-5.779 -7.326 1.564
-13.412 -6.522 -6.882
-13.412 -6.522 -6.882
-5.449 -7.707 2.260
-7.731 -7.746 0.022
-13.373 -6.529 -6.835
-5.214 -7.246 2.020
-6.286 -8.671 2.381
-14.288 -6.371 -7.908
-12.963 -5.251 -7.712
-11.366 -4.126 -7.232
-13.409 -6.522 -6.878
-5.777 -7.326 1.565
-6.411 -7.553 1.130
-6.411 -7.554 1.131
-5.187 -7.274 2.074
-11.255 -4.286 -6.961
-4.354 -6.625 2.286
-13.555 -6.542 -7.005
-5.072 -7.992 2.930
-13.552 -6.545 -6.998
-10.287 -4.674 -5.744
-5.741 -7.577 1.849
-14.290 -6.371 -7.910
-5.118 -8.497 3.371
-5.257 -7.304 2.043
-5.777 -7.326 1.565
-13.551 -6.542 -7.000
-11.392 -4.113 -7.271
-4.477 -7.308 2.847
-5.789 -8.717 2.924
-13.375 -6.529 -6.837
-7.408 -8.942 1.546
-5.262 -7.250 1.976
-13.375 -6.529 -6.837
-5.670 -7.467 1.808
-6.063 -6.622 0.577
-6.039 -8.072 2.001
-5.895 -6.621 0.743
-4.366 -6.540 2.188
-5.669 -7.468 1.809
-11.391 -4.114 -7.270
-14.290 -6.371 -7.910
-14.290 -6.371 -7.910
-6.926 -10.414 3.486
-11.429 -4.935 -6.569
-7.366 -8.933 1.579
-7.780 -7.426 -0.344
-5.832 -6.649 0.835
-7.417 -8.941 1.536
-5.712 -8.730 3.018
-14.267 -6.378 -7.879
-13.388 -6.529 -6.850
-5.098 -8.503 3.387
-13.532 -6.557 -6.966
-6.629 -8.927 2.310
-13.392 -6.527 -6.856
-6.079 -8.526 2.455
-13.065 -6.617 -6.439
-6.061 -8.083 1.990
-6.011 -8.851 2.847
-5.765 -7.329 1.580
-11.388 -4.116 -7.264
-7.786 -7.426 -0.350
-6.632 -8.926 2.307
-5.114 -8.068 2.964
-6.305 -10.191 3.853
-6.953 -10.411 3.456
-4.542 -7.781 3.253
-5.982 -8.701 2.709
-6.632 -8.926 2.306
-8.540 -9.615 1.082
-6.304 -9.027 2.741
-11.253 -4.287 -6.959
-11.122 -4.980 -6.158
-13.551 -6.550 -6.992
-4.796 -7.002 2.220
-6.669 -8.626 1.953
-4.477 -7.949 3.481
-6.458 -7.556 1.086
-6.305 -9.027 2.739
-7.883 -8.090 0.186
-5.948 -8.205 2.272
-6.779 -10.331 3.546
-6.150 -8.689 2.528
-13.406 -6.525 -6.873
-6.329 -9.041 2.729
-13.407 -6.524 -6.875
-11.364 -4.128 -7.229
-14.286 -6.372 -7.905
-6.455 -7.555 1.088
-6.630 -8.926 2.308
-6.366 -7.633 1.267
-5.544 -8.936 3.406
-6.630 -8.926 2.308
-5.852 -6.631 0.798
-5.249 -7.316 2.062
-6.429 -7.565 1.124
-6.725 -8.934 2.221
-6.401 -7.613 1.207
-13.363 -6.567 -6.788
-5.882 -6.633 0.769
-5.544 -8.936 3.407
-5.261 -7.252 1.980
-11.389 -4.115 -7.266
-11.389 -4.115 -7.266
-5.788 -8.724 2.930
-13.407 -6.524 -6.875
-5.969 -8.853 2.893
-13.407 -6.524 -6.875
-4.271 -6.310 2.044
-3.945 -6.407 2.479
-5.848 -8.562 2.722
-4.205 -6.573 2.382
-4.220 -6.505 2.298
-7.125 -10.391 3.261
-6.631 -8.927 2.308
-6.545 -7.540 0.973
-7.731 -7.746 0.023
-13.407 -6.524 -6.875
-5.726 -9.277 3.562
-5.850 -8.560 2.718
-13.407 -6.523 -6.876
-5.109 -8.715 3.600
-5.852 -6.631 0.797
-6.811 -7.601 0.768
-13.409 -6.523 -6.877
-5.214 -8.182 2.979
-6.630 -8.926 2.308
-13.407 -6.524 -6.875
-5.262 -7.250 1.976
-13.408 -6.523 -6.876
-6.066 -8.063 1.965
-13.370 -6.531 -6.831
-6.315 -9.085 2.784
-6.070 -8.083 1.980
-11.390 -4.115 -7.267
-11.390 -4.115 -7.267
-5.212 -7.246 2.022
-5.775 -7.324 1.565
-11.560 -4.186 -7.367
-4.545 -7.781 3.250
-4.389 -7.795 3.420
-5.853 -6.632 0.796
-13.363 -6.552 -6.802
-5.214 -8.174 2.971
-13.407 -6.524 -6.875
-5.967 -9.137 3.187
-13.364 -6.554 -6.802
-6.302 -9.028 2.743
-5.853 -6.631 0.796
-11.560 -4.186 -7.367
-13.363 -6.554 -6.801
-6.328 -9.036 2.726
-6.261 -8.105 1.812
-5.773 -7.327 1.570
-4.205 -6.577 2.387
-5.378 -7.348 1.965
-13.409 -6.523 -6.877
-6.381 -6.668 0.305
-4.220 -6.504 2.297
-13.408 -6.523 -6.877
-11.364 -4.139 -7.217
-8.636 -8.725 0.099
-4.566 -7.373 2.820
-6.328 -7.048 0.736
-4.662 -7.914 3.267
-5.941 -8.441 2.498
-6.302 -9.027 2.742
-5.399 -7.922 2.537
-4.098 -6.705 2.622
-5.741 -7.567 1.840
-4.205 -6.576 2.386
-13.365 -6.553 -6.803
-11.391 -4.115 -7.269
-6.632 -8.926 2.306
-4.390 -7.796 3.419
-6.307 -9.028 2.739
-6.307 -9.033 2.743
-13.365 -6.554 -6.803
-5.145 -7.959 2.825
-4.601 -7.463 2.874
-6.034 -8.107 2.037
-6.303 -9.028 2.742
-9.016 -6.776 -2.263
-13.070 -6.609 -6.452
-5.111 -8.157 3.056
-5.186 -7.274 2.075
-5.033 -7.531 2.493
-5.544 -8.937 3.406
-6.102 -8.077 1.942
-6.266 -8.045 1.749
-11.391 -4.115 -7.268
-5.849 -8.556 2.716
-5.854 -6.631 0.795
-6.456 -7.554 1.085
-12.984 -5.331 -7.651
-6.630 -8.926 2.308
-6.455 -7.554 1.086
-5.889 -6.622 0.751
-13.373 -6.530 -6.835
-5.212 -7.246 2.023
-6.780 -10.331 3.545
-6.303 -9.026 2.740
-6.153 -8.652 2.478
-6.303 -9.033 2.746
-5.264 -7.307 2.039
-13.371 -6.530 -6.832
-13.408 -6.523 -6.876
-13.408 -6.523 -6.876
-3.943 -6.407 2.482
-3.872 -8.198 4.331
-4.365 -6.542 2.190
-6.556 -7.550 0.977
-4.232 -7.215 2.997
-6.033 -8.070 2.005
-6.183 -8.726 2.534
-6.153 -8.652 2.477
-5.844 -7.005 1.176
-6.012 -8.194 2.185
-6.266 -8.045 1.749
-13.364 -6.552 -6.803
-5.889 -6.622 0.751
-5.097 -8.721 3.619
-13.406 -6.524 -6.874
-6.406 -7.556 1.138
-4.404 -7.805 3.415
-4.220 -6.503 2.297
-11.390 -4.115 -7.267
-5.674 -7.487 1.823
-5.889 -6.622 0.750
-6.153 -8.652 2.478
-5.210 -7.269 2.047
-5.005 -7.525 2.516
-5.884 -6.632 0.766
-5.304 -7.336 2.043
-7.755 -7.425 -0.320
-5.097 -8.722 3.619
-8.100 -7.028 -1.074
-13.364 -6.554 -6.801
-6.183 -8.731 2.540
-3.953 -6.134 2.197
-13.407 -6.523 -6.875
-11.390 -4.115 -7.267
-6.330 -9.006 2.695
-11.626 -4.150 -7.468
-13.407 -6.524 -6.875
-5.373 -7.260 1.874
-5.005 -7.525 2.516
-4.830 -7.900 3.084
-5.140 -7.966 2.835
-5.842 -6.639 0.815
-5.452 -7.906 2.469
-5.084 -8.728 3.639
-4.382 -7.396 3.030
-6.354 -7.547 1.179
-6.630 -8.918 2.300
-6.725 -8.926 2.214
-5.170 -8.715 3.539
-5.189 -7.281 2.080
-6.023 -8.075 2.020
-6.314 -9.035 2.739
-6.021 -8.074 2.022
-8.175 -6.472 -1.711
-5.745 -7.564 1.833
-6.058 -8.084 1.993
-5.894 -6.634 0.757
-4.612 -7.408 2.810
-5.160 -7.987 2.838
-4.133 -7.315 3.197
-5.522 -8.265 2.755
-6.026 -8.075 2.017
-6.337 -9.035 2.716
-11.376 -4.117 -7.251
-5.927 -8.443 2.514
-6.249 -8.048 1.768
-5.648 -8.774 3.127
-6.631 -8.928 2.309
-5.081 -7.525 2.440
-6.428 -7.570 1.132
-5.981 -8.856 2.882
-7.047 -8.126 1.052
-6.070 -8.081 1.978
-13.390 -6.526 -6.856
-5.785 -7.335 1.567
-4.376 -7.709 3.344
-6.397 -7.597 1.190
-13.347 -6.556 -6.783
-11.383 -4.115 -7.259
-11.553 -4.184 -7.360
-4.204 -6.576 2.387
-5.741 -7.565 1.837
-5.959 -8.205 2.260
-5.773 -7.326 1.569
-5.741 -7.567 1.839
-6.632 -8.926 2.306
-6.632 -8.926 2.306
-5.850 -8.556 2.715
-6.038 -8.072 2.002
-5.002 -7.525 2.520
-6.632 -8.926 2.306
-5.069 -7.989 2.931
-5.181 -7.264 2.072
-6.057 -6.622 0.582
-3.952 -6.134 2.198
-6.180 -8.726 2.537
-5.618 -9.195 3.585
-5.212 -7.274 2.050
-6.380 -7.535 1.140
-5.505 -8.217 2.726
-6.401 -7.618 1.214
-4.620 -7.457 2.849
-6.038 -8.072 2.002
-6.302 -9.023 2.739
-4.219 -6.504 2.298
-13.391 -6.526 -6.857
-7.124 -10.391 3.262
-5.260 -7.251 1.979
-6.157 -8.690 2.522
-5.097 -8.725 3.623
-5.981 -8.855 2.882
-6.382 -7.541 1.146
-5.889 -6.622 0.751
-11.360 -4.127 -7.225
-3.953 -6.137 2.199
-13.290 -6.435 -6.852
-6.393 -9.050 2.674
-6.233 -8.522 2.294
-13.397 -6.524 -6.865
-6.403 -7.590 1.181
-3.980 -7.887 3.920
-6.303 -9.025 2.740
-5.794 -8.716 2.919
-5.257 -7.304 2.043
-7.124 -10.391 3.262
-6.632 -8.927 2.307
-3.951 -5.578 1.577
-5.889 -6.622 0.751
-6.037 -8.072 2.003
-4.812 -7.520 2.703
-11.360 -4.127 -7.225
-6.633 -8.926 2.305
-6.304 -9.043 2.757
-6.402 -7.619 1.213
-3.905 -6.441 2.553
-11.556 -4.185 -7.363
-6.391 -9.448 3.043
-6.306 -9.029 2.741
-13.397 -6.524 -6.865
-13.354 -6.555 -6.790
-6.546 -7.574 1.018
-4.205 -6.577 2.386
-3.910 -6.417 2.524
-4.572 -7.408 2.850
-6.034 -8.066 2.000
-5.741 -7.570 1.843
-6.630 -8.926 2.308
-13.362 -6.531 -6.823
-6.233 -8.522 2.294
-13.399 -6.524 -6.867
-6.725 -8.934 2.221
-5.844 -7.002 1.174
-5.844 -7.004 1.176
-6.402 -7.614 1.208
-13.356 -6.553 -6.794
-5.889 -6.622 0.750
-6.379 -7.530 1.134
-5.688 -8.943 3.269
-5.257 -7.304 2.042
-5.741 -7.573 1.845
-13.363 -6.531 -6.824
-5.894 -6.638 0.762
-5.833 -7.329 1.511
-13.356 -6.554 -6.793
-6.428 -9.051 2.640
-5.741 -7.566 1.838
-6.426 -9.038 2.630
-6.403 -7.613 1.206
-13.401 -6.524 -6.869
-6.233 -8.522 2.294
-11.387 -4.114 -7.265
-6.633 -8.926 2.305
-6.742 -8.933 2.203
-13.471 -6.567 -6.895
-13.399 -6.524 -6.866
-6.303 -9.027 2.742
-5.130 -8.010 2.890
-4.793 -6.951 2.173
-5.761 -7.548 1.801
-6.322 -8.979 2.675
-4.050 -6.140 2.107
-5.741 -7.569 1.842
-6.037 -8.072 2.004
-5.890 -6.622 0.750
-5.728 -8.216 2.502
-6.293 -9.066 2.789
-6.102 -8.077 1.942
-6.630 -8.926 2.308
-6.036 -8.072 2.004
-5.052 -7.840 2.803
-6.725 -8.935 2.222
-5.675 -7.486 1.821
-5.554 -8.943 3.403
-6.328 -9.017 2.706
-5.308 -7.347 2.051
-13.355 -6.554 -6.793
-7.114 -10.395 3.279
-6.238 -9.431 3.181
-6.406 -7.555 1.136
-5.066 -7.500 2.442
-6.076 -8.323 2.243
-5.621 -9.203 3.591
-5.621 -9.203 3.591
-5.741 -7.568 1.841
-4.811 -7.520 2.704
-4.769 -6.815 2.062
-5.834 -7.338 1.520
-6.058 -6.622 0.582
-5.918 -6.623 0.723
-6.243 -8.177 1.905
-6.571 -7.566 0.983
-3.953 -6.134 2.197
-6.631 -8.926 2.308
-4.499 -6.331 1.849
-4.811 -7.514 2.698
-6.402 -7.619 1.213
-6.304 -9.027 2.741
-4.205 -6.578 2.387
-5.109 -8.176 3.079
-6.725 -8.934 2.221
-5.741 -7.571 1.844
-6.153 -8.652 2.478
-4.745 -7.352 2.605
-6.382 -7.537 1.140
-6.033 -8.072 2.008
-5.049 -8.553 3.508
-5.621 -9.203 3.591
-6.183 -8.726 2.535
-6.725 -8.934 2.221
-6.725 -8.934 2.221
-5.847 -8.543 2.703
-5.741 -7.574 1.846
-4.388 -7.397 3.025
-4.050 -6.140 2.107
-3.992 -6.133 2.157
-6.378 -7.593 1.209
-4.379 -7.395 3.033
-5.033 -7.531 2.493
-7.089 -10.395 3.304
-4.050 -6.140 2.107
-6.238 -9.431 3.182
-5.883 -6.632 0.767
-4.810 -7.520 2.705
-5.297 -7.953 2.664
-4.584 -7.133 2.550
-4.218 -5.780 1.572
-4.625 -6.249 1.632
-4.707 -5.906 1.209
-4.728 -6.046 1.331
-3.874 -6.184 2.307
-4.210 -5.788 1.588
-4.648 -5.969 1.333
-4.706 -5.904 1.209
-4.297 -5.775 1.489
-4.245 -5.905 1.672
-4.548 -6.950 2.402
-3.874 -6.183 2.306
-4.706 -5.905 1.209
-3.874 -6.182 2.305
-4.255 -5.775 1.530
-4.440 -6.537 2.087
-3.874 -6.184 2.308
-4.197 -6.586 2.404
-3.874 -6.188 2.310
-4.557 -7.157 2.595
-2.906 -5.993 3.086
-3.874 -6.182 2.306
-4.038 -5.853 1.804
-4.706 -5.903 1.208
-4.706 -5.904 1.209
-4.784 -5.867 1.093
-4.597 -7.195 2.597
-4.256 -5.775 1.529
-6.068 -6.627 0.577
-6.411 -7.650 1.235
-4.576 -7.126 2.551
-4.580 -7.082 2.501
-4.295 -5.776 1.492
-4.707 -5.904 1.208
-4.728 -6.047 1.332
-4.086 -6.680 2.610
-4.296 -5.777 1.492
-4.783 -5.867 1.094
-4.672 -5.906 1.245
-4.529 -6.026 1.507
-4.297 -5.776 1.490
-4.197 -6.577 2.395
-4.706 -5.904 1.209
-3.760 -6.162 2.401
-6.513 -7.622 1.100
-4.254 -5.776 1.532
-4.178 -5.782 1.612
-4.210 -5.790 1.590
-3.811 -5.845 2.047
-6.480 -7.564 1.071
-6.125 -8.309 2.191
-4.537 -6.650 2.130
-4.593 -7.225 2.633
-6.513 -7.623 1.102
-4.573 -7.092 2.519
-6.482 -7.584 1.093
-4.700 -5.875 1.185
-3.869 -6.182 2.311
-2.910 -5.088 2.191
-6.940 -10.407 3.464
-4.197 -6.584 2.401
-4.283 -5.770 1.496
-6.480 -7.559 1.066
-6.480 -7.561 1.068
-3.514 -5.756 2.244
-4.604 -7.258 2.652
-4.216 -6.611 2.409
-4.291 -5.774 1.494
-4.601 -7.265 2.659
-4.249 -5.775 1.537
-4.640 -5.967 1.339
-3.868 -6.180 2.310
-4.741 -5.980 1.252
-3.755 -5.899 2.153
-4.282 -5.769 1.496
-4.646 -5.968 1.334
-4.525 -6.025 1.509
-3.797 -6.242 2.429
-4.703 -5.904 1.211
-4.646 -5.968 1.334
-4.570 -6.560 1.979
-6.464 -7.605 1.134
-4.230 -5.963 1.745
-4.395 -5.912 1.529
-4.604 -7.321 2.715
-4.217 -6.601 2.399
-4.781 -5.867 1.096
-4.670 -5.903 1.244
-4.781 -5.866 1.095
-4.396 -5.910 1.527
-4.532 -6.956 2.429
-4.317 -5.880 1.574
-5.238 -7.321 2.070
-4.217 -6.609 2.406
-4.391 -6.806 2.419
-4.604 -7.324 2.717
-4.217 -6.608 2.405
-4.742 -5.979 1.250
-6.577 -7.563 0.972
-4.354 -6.956 2.603
-4.435 -6.537 2.092
-4.590 -7.418 2.842
-6.482 -7.573 1.081
-4.217 -6.600 2.397
-4.644 -5.968 1.336
-4.741 -5.981 1.253
-4.400 -6.861 2.467
-4.644 -5.967 1.336
-4.252 -5.775 1.533
-5.911 -7.082 1.187
-4.207 -5.789 1.593
-4.435 -6.537 2.092
-4.253 -5.775 1.532
-2.909 -5.995 3.085
-4.781 -5.866 1.095
-4.228 -6.509 2.295
-4.391 -5.932 1.553
-4.436 -6.537 2.091
-4.217 -6.601 2.399
-4.336 -6.554 2.208
-6.068 -6.626 0.576
-4.871 -7.230 2.358
-3.797 -6.246 2.432
-6.592 -7.552 0.945
-4.741 -5.982 1.253
-4.591 -7.428 2.851
-4.703 -5.902 1.209
-6.069 -6.628 0.577
-4.603 -7.213 2.608
-4.284 -5.770 1.496
-6.514 -7.619 1.096
-4.671 -5.904 1.245
-5.379 -7.350 1.967
-4.601 -7.356 2.753
-4.197 -6.580 2.398
-4.645 -5.966 1.334
-6.068 -6.629 0.578
-4.891 -6.836 1.952
-4.670 -5.905 1.246
-4.525 -6.032 1.516
-4.395 -5.911 1.528
-5.377 -7.343 1.978
-4.257 -5.773 1.526
-4.405 -5.913 1.522
-4.703 -5.903 1.211
-4.255 -5.776 1.531
-4.214 -6.614 2.414
-4.217 -6.606 2.403
-5.866 -7.059 1.208
-5.455 -7.782 2.342
-3.594 -5.820 2.229
-4.282 -5.769 1.496
-6.069 -6.627 0.576
-3.808 -5.845 2.050
-4.392 -5.931 1.552
-4.570 -6.560 1.979
-4.217 -6.600 2.398
-6.545 -7.573 1.013
-4.464 -6.536 2.065
-4.253 -5.775 1.532
-4.293 -5.775 1.494
-4.644 -5.968 1.336
-4.382 -5.910 1.540
-4.473 -6.567 2.081
-3.106 -6.017 2.906
-2.912 -5.992 3.079
-4.218 -6.603 2.401
-4.667 -5.905 1.249
-4.668 -5.905 1.249
-5.451 -7.697 2.261
-4.724 -5.886 1.173
-2.910 -5.086 2.189
-5.304 -7.385 2.077
-4.217 -6.606 2.404
-6.481 -7.561 1.068
-4.228 -5.964 1.748
-4.249 -7.107 2.858
-4.471 -6.568 2.084
-4.294 -6.549 2.243
-4.543 -7.446 2.911
-4.654 -5.892 1.247
-4.217 -6.608 2.405
-5.919 -8.159 2.249
-2.888 -6.352 3.444
-2.992 -5.127 2.149
-3.474 -6.497 3.015
-6.544 -7.570 1.012
-4.571 -6.560 1.978
-4.989 -7.226 2.250
-3.270 -5.791 2.511
-4.217 -6.602 2.400
-4.516 -6.843 2.333
-6.054 -6.632 0.596
-6.055 -8.525 2.474
-3.759 -6.166 2.406
-5.873 -8.621 2.710
-4.670 -5.905 1.247
-5.987 -8.650 2.643
-3.267 -6.424 3.152
-6.483 -7.567 1.073
-2.912 -5.990 3.077
-2.912 -5.990 3.077
-4.229 -6.619 2.405
-4.639 -5.914 1.285
-4.574 -6.560 1.975
-4.275 -5.959 1.694
-4.827 -6.982 2.169
-5.866 -7.058 1.208
-3.784 -5.837 2.065
-4.602 -7.238 2.635
-4.290 -6.550 2.248
-3.640 -6.103 2.466
-5.341 -7.312 1.959
-6.463 -7.602 1.132
-4.337 -6.554 2.208
-3.275 -5.802 2.520
-4.328 -5.935 1.616
-6.432 -7.561 1.117
-4.235 -5.963 1.740
-4.783 -5.866 1.093
-3.361 -6.508 3.134
-6.463 -7.607 1.137
-4.328 -5.935 1.617
-5.853 -7.065 1.227
-9.400 -11.118 1.702
-9.400 -11.118 1.702
-5.849 -7.344 1.508
-8.028 -9.686 1.668
-9.400 -11.118 1.702
-6.799 -7.894 1.083
-9.391 -11.118 1.711
-5.332 -7.385 2.040
-5.290 -7.366 2.064
-6.408 -7.878 1.456
-8.016 -9.685 1.678
-6.408 -7.878 1.456
-5.544 -7.266 1.734
-4.966 -6.766 1.813
-9.390 -11.117 1.712
-9.391 -11.118 1.711
-7.627 -9.670 2.054
-9.389 -11.117 1.712
-4.957 -7.202 2.245
-4.961 -7.178 2.214
-4.684 -6.804 2.086
-7.624 -9.668 2.054
-5.175 -6.782 1.602
-5.070 -7.145 2.087
-5.544 -7.267 1.734
-5.332 -7.385 2.040
-7.627 -9.671 2.055
-9.391 -11.118 1.711
-5.290 -7.365 2.064
-4.959 -7.177 2.215
-9.391 -11.118 1.711
-4.956 -7.201 2.240
-5.544 -7.266 1.734
-9.055 -11.081 2.016
-5.332 -7.385 2.040
-7.627 -9.671 2.055
-7.627 -9.671 2.055
-7.753 -9.673 1.931
-9.391 -11.118 1.711
-4.911 -7.171 2.257
-4.306 -6.041 1.749
-5.018 -6.764 1.758
-9.391 -11.118 1.711
-7.580 -9.658 2.089
-4.929 -6.753 1.835
-5.532 -6.823 1.301
-5.544 -7.266 1.734
-8.016 -9.685 1.678
-7.628 -9.674 2.057
-4.949 -7.171 2.216
-9.391 -11.118 1.711
-4.715 -6.996 2.296
-5.131 -7.389 2.239
-4.745 -7.017 2.287
-7.580 -9.660 2.090
-7.627 -9.673 2.057
-5.549 -7.267 1.729
-4.745 -7.017 2.287
-7.624 -9.670 2.056
-9.391 -11.118 1.711
-4.715 -6.996 2.296
-5.032 -6.737 1.717
-5.544 -7.266 1.734
-9.134 -11.106 1.958
-4.981 -6.630 1.652
-6.800 -7.894 1.083
-8.016 -9.685 1.678
-5.544 -7.266 1.734
-5.544 -7.267 1.734
-5.544 -7.267 1.734
-7.895 -9.683 1.797
-9.390 -11.117 1.712
-9.391 -11.118 1.711
-7.627 -9.671 2.055
-5.131 -7.388 2.239
-4.871 -7.152 2.282
-5.544 -7.266 1.734
-9.391 -11.118 1.711
-9.390 -11.117 1.712
-6.428 -7.878 1.438
-4.960 -7.177 2.214
-4.745 -7.015 2.285
-5.839 -7.346 1.520
-5.544 -7.266 1.734
-5.332 -7.385 2.040
-6.409 -7.878 1.456
-4.960 -7.177 2.215
-9.391 -11.118 1.711
-5.332 -7.385 2.040
-9.390 -11.117 1.712
-5.332 -7.385 2.040
-5.544 -7.266 1.734
-5.914 -7.211 1.305
-7.975 -9.676 1.710
-5.287 -7.368 2.069
-6.799 -7.894 1.083
-5.539 -7.269 1.741
-5.544 -7.266 1.734
-5.332 -7.385 2.040
-4.742 -7.031 2.304
-5.831 -7.346 1.527
-9.389 -11.117 1.712
-6.799 -7.894 1.083
-5.539 -7.268 1.741
-5.544 -7.266 1.734
-7.627 -9.672 2.055
-7.898 -9.687 1.798
-6.887 -8.640 1.764
-5.109 -7.096 1.999
-5.544 -7.266 1.734
-5.832 -7.346 1.527
-9.391 -11.118 1.711
-7.624 -9.667 2.054
-7.627 -9.670 2.053
-9.383 -11.118 1.719
-5.831 -7.346 1.527
-5.839 -7.346 1.520
-5.544 -7.267 1.734
-4.745 -7.017 2.287
-9.391 -11.118 1.711
-5.839 -7.346 1.520
-5.544 -7.267 1.734
-9.391 -11.118 1.711
-7.735 -10.306 2.560
-5.290 -7.366 2.064
-5.328 -7.391 2.049
-5.839 -7.346 1.520
-5.839 -7.346 1.520
-5.173 -6.719 1.536
-7.625 -9.676 2.061
-5.840 -7.346 1.519
-6.409 -7.878 1.456
-6.887 -8.642 1.766
-5.544 -7.266 1.734
-5.332 -7.413 2.065
-5.832 -7.346 1.528
-9.390 -11.117 1.712
-9.139 -11.104 1.952
-4.936 -7.812 2.868
-6.408 -7.878 1.456
-4.609 -6.374 1.776
-5.493 -7.269 1.787
-6.799 -7.894 1.083
-5.332 -7.385 2.040
-9.390 -11.117 1.712
-5.499 -7.267 1.780
-4.960 -7.176 2.214
-9.391 -11.118 1.711
-6.408 -7.878 1.456
-6.408 -7.878 1.456
-6.858 -8.581 1.734
-4.962 -7.179 2.214
-5.333 -7.393 2.045
-9.389 -11.117 1.712
-5.539 -7.269 1.741
-5.831 -7.346 1.527
-6.408 -7.878 1.456
-5.332 -7.385 2.040
-5.548 -7.267 1.731
-9.300 -11.094 1.781
-5.544 -7.266 1.734
-9.389 -11.117 1.712
-5.169 -7.366 2.209
-6.408 -7.878 1.456
-4.975 -6.738 1.775
-7.624 -9.670 2.056
-5.544 -7.267 1.734
-7.898 -9.686 1.798
-5.294 -7.379 2.071
-6.799 -7.894 1.083
-7.223 -8.767 1.552
-5.499 -7.268 1.780
-5.332 -7.385 2.040
-9.391 -11.118 1.711
-4.745 -7.022 2.292
-5.544 -7.266 1.734
-5.499 -7.267 1.780
-6.799 -7.894 1.083
-7.627 -9.673 2.056
-6.799 -7.894 1.083
-6.799 -7.894 1.083
-6.408 -7.878 1.456
-4.976 -7.845 2.856
-7.711 -9.767 2.067
-4.558 -6.653 2.112
-5.148 -7.097 1.961
-6.437 -7.874 1.424
-6.437 -7.874 1.424
-4.962 -7.101 2.134
-4.983 -6.751 1.780
-5.041 -6.768 1.739
-9.311 -11.093 1.770
-4.765 -7.002 2.252
-6.354 -8.602 2.221
-5.894 -8.588 2.654
-5.849 -8.627 2.733
-4.884 -7.969 3.072
-4.391 -7.890 3.489
-5.480 -8.426 2.942
-4.883 -7.969 3.073
-4.883 -7.969 3.073
-6.468 -8.634 2.145
-6.060 -8.597 2.496
-5.520 -9.093 3.556
-5.848 -8.392 2.540
-6.312 -8.640 2.307
-5.017 -7.728 2.700
-6.331 -8.528 2.202
-6.331 -8.528 2.202
-5.847 -8.628 2.735
-5.847 -8.628 2.735
-6.313 -8.640 2.306
-5.848 -8.628 2.734
-4.298 -5.992 1.698
-6.312 -8.640 2.307
-4.673 -7.740 3.084
-6.331 -8.526 2.200
-6.312 -8.640 2.307
-6.312 -8.640 2.307
-5.848 -8.628 2.734
-6.328 -8.540 2.218
-6.331 -8.530 2.204
-4.883 -7.966 3.070
-4.402 -6.300 1.902
-5.496 -9.117 3.606
-4.404 -6.315 1.913
-6.468 -8.634 2.145
-6.331 -8.528 2.202
-6.312 -8.640 2.307
-6.312 -8.640 2.307
-6.331 -8.528 2.202
-5.116 -7.749 2.621
-5.031 -7.735 2.692
-6.313 -8.640 2.306
-5.848 -8.628 2.734
-5.892 -8.737 2.812
-4.313 -5.950 1.643
-5.482 -8.426 2.940
-4.655 -7.741 3.103
-6.330 -8.522 2.196
-5.818 -8.613 2.802
-5.031 -7.736 2.693
-5.116 -7.748 2.620
-5.116 -7.748 2.620
-6.033 -8.401 2.364
-4.389 -7.890 3.491
-6.060 -8.597 2.496
-4.883 -7.969 3.072
-6.312 -8.640 2.306
-4.419 -6.319 1.902
-4.197 -7.751 3.566
-5.117 -7.742 2.613
-5.892 -8.737 2.811
-5.033 -7.732 2.688
-5.892 -8.737 2.811
-6.060 -8.597 2.496
-6.331 -8.529 2.204
-6.312 -8.641 2.307
-6.092 -8.708 2.585
-4.098 -6.652 2.557
-4.197 -7.750 3.565
-6.007 -8.623 2.581
-4.226 -7.754 3.540
-5.848 -8.628 2.734
-5.032 -7.739 2.696
-6.331 -8.528 2.202
-6.331 -8.528 2.202
-6.331 -8.528 2.202
-5.847 -8.628 2.735
-5.031 -7.735 2.692
-5.847 -8.628 2.735
-6.331 -8.528 2.202
-4.071 -6.654 2.586
-6.331 -8.528 2.202
-5.116 -7.752 2.624
-5.848 -8.391 2.539
-5.031 -7.743 2.701
-4.261 -6.623 2.374
-6.008 -8.622 2.579
-5.848 -8.631 2.737
-4.197 -7.751 3.567
-5.818 -8.608 2.797
-6.331 -8.528 2.202
-5.031 -7.728 2.685
-5.847 -8.628 2.735
-6.331 -8.527 2.201
-6.007 -8.623 2.580
-4.098 -6.652 2.557
-3.484 -7.142 3.655
-4.378 -7.993 3.605
-4.884 -7.964 3.068
-5.033 -7.738 2.693
-6.008 -8.622 2.579
-5.018 -7.730 2.701
-5.033 -7.737 2.693
-4.385 -7.883 3.488
-4.392 -7.890 3.488
-4.300 -6.005 1.708
-5.033 -7.749 2.705
-5.118 -7.749 2.620
-4.584 -7.530 2.962
-4.198 -7.751 3.565
-4.897 -7.574 2.670
-5.118 -7.750 2.619
-6.034 -8.401 2.363
-4.376 -7.997 3.611
-5.891 -8.737 2.813
-4.383 -7.882 3.490
-4.391 -7.890 3.489
-4.409 -6.310 1.903
-4.407 -6.300 1.894
-5.117 -7.745 2.616
-4.409 -6.314 1.907
-5.117 -7.753 2.623
-6.313 -8.640 2.306
-5.116 -7.754 2.625
-4.191 -8.017 3.813
-6.332 -8.528 2.201
-4.992 -7.591 2.591
-5.891 -8.738 2.814
-6.008 -8.622 2.579
-5.116 -7.752 2.623
-4.898 -7.574 2.669
-6.009 -8.622 2.578
-4.191 -8.017 3.813
-6.009 -8.622 2.578
-6.009 -8.622 2.578
-5.116 -7.738 2.611
-4.191 -8.017 3.813
-6.009 -8.623 2.578
-4.959 -7.540 2.575
-5.118 -7.745 2.615
-5.118 -7.748 2.618
-4.362 -7.386 3.041
-5.118 -7.750 2.620
-4.384 -7.398 3.030
-5.118 -7.749 2.620
-4.185 -7.751 3.578
-4.959 -7.541 2.576
-4.364 -6.657 2.309
-4.545 -7.521 2.993
-5.117 -7.750 2.620
-5.854 -8.410 2.555
-5.116 -7.749 2.621
-5.116 -7.752 2.625
-4.383 -7.404 3.037
-5.913 -8.710 2.764
-5.116 -7.754 2.626
-6.803 -7.893 1.079
-4.914 -7.200 2.298
-5.831 -7.417 1.599
-6.799 -7.894 1.083
-4.913 -7.199 2.300
-4.989 -7.228 2.251
-4.817 -7.256 2.453
-4.914 -7.199 2.298
-6.427 -7.878 1.439
-4.913 -7.200 2.300
-6.427 -7.878 1.439
-6.427 -7.878 1.439
-6.427 -7.878 1.439
-4.817 -7.257 2.453
-4.979 -7.217 2.252
-5.285 -7.187 1.919
-4.669 -7.423 2.768
-4.913 -7.202 2.301
-5.552 -7.266 1.725
-5.549 -7.266 1.729
-4.669 -7.423 2.768
-4.816 -7.256 2.453
-4.978 -7.218 2.252
-6.799 -7.894 1.084
-4.912 -7.199 2.300
-4.977 -7.218 2.253
-4.669 -7.827 3.170
-4.669 -7.423 2.768
-4.977 -7.218 2.254
-4.912 -7.199 2.300
-6.427 -7.878 1.439
-5.552 -7.266 1.725
-5.552 -7.266 1.725
-5.460 -7.380 1.933
-6.411 -7.879 1.454
-5.931 -8.000 2.065
-4.978 -7.218 2.253
-4.978 -7.218 2.253
-5.552 -7.266 1.725
-6.457 -7.874 1.405
-6.819 -7.892 1.062
-4.679 -7.424 2.759
-6.816 -7.893 1.066
-6.348 -7.912 1.556
-6.427 -7.878 1.437
-5.061 -7.039 1.990
-4.919 -7.198 2.293
-4.683 -6.561 1.893
-5.825 -7.425 1.613
-4.984 -7.217 2.246
-4.984 -7.217 2.246
-6.427 -7.878 1.437
-4.984 -7.217 2.247
-4.579 -6.764 2.199
-4.678 -7.425 2.760
-4.984 -7.217 2.247
-4.678 -7.425 2.761
-4.484 -6.938 2.470
-4.985 -7.217 2.246
-6.427 -7.878 1.437
-4.621 -6.960 2.356
-5.823 -7.426 1.616
-4.579 -6.764 2.199
-4.676 -7.827 3.163
-4.763 -6.989 2.240
-5.105 -7.015 1.922
-4.984 -7.217 2.246
-4.919 -7.199 2.293
-5.825 -7.425 1.613
-4.993 -7.227 2.246
-6.423 -7.879 1.441
-4.916 -7.198 2.295
-4.669 -7.826 3.169
-4.916 -7.199 2.296
-3.705 -7.097 3.408
-4.856 -7.239 2.396
-4.679 -7.442 2.776
-5.832 -7.418 1.599
-5.832 -7.418 1.599
-5.299 -7.238 1.955
-4.954 -7.010 2.068
-4.982 -7.217 2.248
-3.951 -7.291 3.354