-13.198 -13.742 0.628
-13.198 -13.742 0.628
-13.323 -13.905 0.415
-13.323 -13.905 0.415
-17.075 -9.896 -7.130
-20.451 -12.437 -8.502
-11.948 -13.207 1.365
-20.451 -12.437 -8.502
-10.645 -12.396 1.848
-8.665 -11.933 3.356
-10.755 -12.198 1.553
-12.978 -14.433 0.775
-15.000 -10.941 -7.367
-12.245 -14.334 1.908
-15.000 -10.941 -7.367
-15.000 -10.941 -7.367
-11.323 -7.955 -7.205
-13.348 -13.912 0.399
-12.249 -14.337 1.909
-12.980 -14.434 0.774
-9.240 -13.110 3.877
-19.960 -12.776 -7.560
-19.960 -12.776 -7.560
-12.243 -14.335 1.912
-9.543 -12.940 3.174
-13.344 -13.910 0.402
-15.000 -10.941 -7.366
-10.504 -12.489 2.025
-17.098 -9.894 -7.156
-19.967 -12.775 -7.568
-20.479 -12.434 -8.532
-17.098 -9.894 -7.156
-12.243 -14.334 1.913
-10.042 -13.968 3.282
-20.479 -12.434 -8.532
-12.209 -14.340 1.950
-10.569 -13.125 2.369
-19.966 -12.775 -7.567
-15.006 -10.939 -7.374
-17.375 -9.649 -7.630
-12.593 -12.976 0.529
-8.599 -11.827 3.248
-10.684 -12.584 1.996
-11.845 -15.346 2.925
-20.479 -12.434 -8.532
-17.098 -9.894 -7.156
-12.243 -14.335 1.913
-11.926 -13.198 1.379
-12.208 -14.338 1.949
-12.169 -13.488 1.477
-20.716 -10.726 -9.755
-9.978 -13.038 3.109
-12.409 -11.252 -1.358
-12.011 -13.223 1.314
-10.902 -11.590 0.726
-12.742 -9.644 -3.032
-10.747 -12.187 1.555
-16.543 -10.135 -6.349
-8.990 -13.926 4.035
-10.904 -11.592 0.726
-12.212 -14.337 1.942
-18.163 -10.783 -7.484
-13.343 -13.911 0.404
-13.233 -13.753 0.604
-19.978 -12.771 -7.581
-9.007 -11.555 2.614
-9.970 -13.002 3.072
-12.535 -11.237 -1.464
-12.243 -14.335 1.912
-10.731 -10.813 0.099
-12.243 -14.334 1.912
-10.743 -11.605 0.886
-17.394 -9.646 -7.652
-12.989 -13.217 0.382
-8.885 -11.716 2.893
-12.245 -14.336 1.912
-12.210 -14.340 1.949
-10.319 -11.695 1.412
-12.588 -11.231 -1.530
-19.978 -12.771 -7.581
-19.978 -12.771 -7.581
-12.243 -14.335 1.912
-10.743 -11.612 0.891
-12.602 -12.975 0.520
-13.347 -13.909 0.397
-12.535 -11.237 -1.464
-13.197 -13.749 0.635
-10.903 -11.590 0.726
-12.150 -13.483 1.491
-12.535 -11.237 -1.464
-12.151 -13.489 1.499
-13.235 -13.748 0.597
-12.594 -12.991 0.538
-13.235 -13.748 0.597
-12.580 -12.992 0.558
-13.303 -13.911 0.439
-11.998 -10.843 -1.255
-10.173 -13.210 3.020
-12.579 -12.975 0.543
-12.579 -12.975 0.543
-13.235 -13.748 0.597
-13.346 -13.909 0.398
-12.523 -11.237 -1.450
-12.599 -12.994 0.528
-12.941 -14.431 0.806
-10.742 -10.811 0.089
-12.535 -11.237 -1.464
-13.235 -13.748 0.597
-12.535 -11.237 -1.464
-9.539 -11.496 1.692
-12.038 -10.840 -1.294
-12.535 -11.237 -1.464
-13.198 -13.748 0.634
-12.535 -11.237 -1.464
-10.866 -10.818 -0.002
-12.616 -11.215 -1.570
-12.544 -11.226 -1.530
-12.748 -11.221 -1.786
-12.068 -10.821 -1.351
-13.361 -13.907 0.381
-17.149 -9.886 -7.214
-12.526 -12.610 0.235
-10.126 -10.437 0.418
-13.212 -13.750 0.621
-12.519 -12.756 0.372
-12.253 -14.335 1.903
-13.361 -13.908 0.381
-12.404 -14.325 1.732
-10.811 -10.791 0.002
-12.642 -12.969 0.470
-12.404 -14.326 1.732
-12.643 -12.944 0.452
-12.613 -11.216 -1.566
-9.043 -11.550 2.574
-10.855 -10.785 -0.045
-10.731 -12.537 1.702
-19.992 -12.768 -7.600
-10.812 -10.789 0.000
-10.768 -11.594 0.850
-12.613 -11.216 -1.566
-12.251 -14.336 1.904
-17.147 -9.886 -7.211
-13.248 -13.749 0.585
-18.185 -12.205 -5.785
-19.992 -12.768 -7.600
-13.247 -13.746 0.583
-13.359 -13.907 0.383
-12.199 -13.483 1.440
-13.005 -14.431 0.739
-10.285 -12.935 2.506
-12.624 -11.237 -1.686
-12.615 -11.215 -1.569
-12.994 -14.428 0.751
-13.247 -13.746 0.583
-13.317 -13.910 0.422
-12.174 -13.480 1.466
-13.317 -13.909 0.422
-9.746 -12.519 2.814
-10.814 -10.786 -0.003
-9.929 -9.256 -1.110
-10.282 -12.583 2.139
-12.067 -10.821 -1.350
-12.612 -12.968 0.504
-10.522 -11.343 0.769
-12.067 -10.821 -1.350
-15.148 -11.022 -4.172
-13.364 -13.910 0.380
-8.155 -10.704 2.581
-10.855 -10.783 -0.046
-12.629 -12.964 0.483
-12.650 -11.256 -1.643
-13.433 -13.749 0.401
-10.855 -10.782 -0.047
-13.364 -13.910 0.380
-12.654 -11.235 -1.614
-13.364 -13.909 0.379
-12.631 -12.957 0.472
-12.071 -10.824 -1.355
-13.364 -13.910 0.379
-12.111 -10.821 -1.395
-12.749 -11.221 -1.786
-9.561 -11.498 1.672
-10.657 -11.447 0.671
-10.729 -12.534 1.702
-12.201 -13.485 1.440
-12.749 -11.221 -1.786
-9.749 -9.264 -0.549
-9.745 -9.294 -0.796
-10.782 -10.853 0.113
-12.749 -11.221 -1.786
-12.616 -11.215 -1.570
-12.256 -14.338 1.903
-9.618 -9.336 -0.705
-13.250 -13.753 0.586
-10.276 -12.599 1.967
-10.978 -11.910 0.963
-9.736 -12.499 2.787
-10.986 -10.806 -0.113
-13.213 -13.754 0.625
-12.070 -10.825 -1.353
-10.527 -10.423 0.014
-10.670 -12.569 1.800
-12.256 -14.337 1.903
-12.628 -12.965 0.483
-10.527 -10.424 0.015
-12.650 -11.256 -1.643
-12.650 -11.256 -1.643
-9.678 -9.060 -0.809
-11.508 -11.319 -0.953
-12.741 -11.224 -1.778
-11.175 -11.316 -0.663
-10.393 -11.656 1.235
-10.583 -13.108 2.350
-8.651 -11.520 2.953
-10.729 -12.534 1.701
-10.983 -10.828 -0.115
-10.729 -12.535 1.702
-9.902 -12.514 2.644
-12.578 -11.259 -1.624
-10.729 -12.536 1.703
-9.663 -9.264 -0.511
-12.631 -12.966 0.482
-10.859 -10.780 -0.049
-9.632 -9.274 -0.419
-8.852 -9.458 0.566
-12.113 -10.820 -1.397
-8.155 -10.704 2.581
-10.173 -13.958 3.117
-10.802 -10.791 0.009
-12.073 -10.823 -1.357
-9.706 -9.093 -0.747
-8.781 -9.394 0.610
-12.502 -11.299 -1.459
-9.554 -11.499 1.679
-12.504 -11.299 -1.462
-11.486 -11.344 -0.907
-13.343 -13.902 0.392
-12.063 -10.814 -1.346
-8.560 -11.995 3.511
-12.643 -11.258 -1.637
-12.066 -10.838 -1.313
-9.917 -12.498 2.615
-12.065 -10.815 -1.348
-10.523 -12.479 1.997
-10.319 -11.514 1.272
-9.776 -9.267 -0.984
-10.729 -12.533 1.700
-11.068 -11.595 0.339
-9.598 -12.182 2.646
-9.783 -9.249 -1.040
-9.646 -9.194 -0.502
-11.680 -12.608 1.029
-10.580 -13.889 3.417
-7.804 -10.545 2.650
-11.033 -11.612 0.611
-10.814 -10.790 -0.001
-10.662 -11.218 0.589
-10.658 -11.446 0.670
-12.534 -11.249 -1.517
-12.107 -10.811 -1.390
-8.879 -11.006 1.847
-10.520 -11.345 0.773
-10.819 -10.788 -0.004
-12.251 -14.328 1.894
-10.808 -10.790 0.008
-12.068 -10.837 -1.316
-12.599 -12.956 0.507
-12.057 -10.813 -1.341
-10.294 -11.846 1.576
-10.729 -12.534 1.702
-10.819 -10.791 -0.007
-12.754 -11.219 -1.795
-9.651 -9.252 -0.626
-10.820 -10.790 -0.007
-12.068 -10.837 -1.317
-8.121 -10.394 2.135
-12.577 -11.259 -1.624
-10.810 -10.789 0.004
-11.463 -10.556 -0.965
-12.183 -13.473 1.448
-10.728 -12.537 1.706
-9.734 -9.125 -0.796
-12.754 -11.219 -1.794
-10.415 -13.518 3.300
-9.556 -11.499 1.677
-10.392 -11.845 1.373
-10.729 -12.527 1.694
-13.206 -13.733 0.611
-10.332 -12.482 2.200
-12.655 -11.254 -1.651
-12.402 -14.317 1.722
-7.826 -11.581 3.874
-11.726 -12.593 0.967
-10.663 -11.219 0.589
-8.651 -11.510 2.943
-10.332 -12.480 2.197
-12.067 -10.837 -1.316
-12.754 -11.219 -1.794
-10.662 -11.220 0.590
-8.786 -10.965 2.231
-10.808 -10.785 0.001
-12.655 -11.254 -1.651
-10.523 -11.343 0.767
-9.010 -11.550 2.604
-13.315 -13.905 0.419
-10.825 -10.810 0.016
-10.292 -12.949 2.337
-5.724 -8.065 2.327
-12.068 -10.837 -1.317
-9.769 -9.250 -0.859
-9.960 -10.505 0.626
-10.330 -12.487 2.204
-7.715 -11.744 3.906
-12.658 -11.233 -1.621
-10.335 -11.680 1.380
-12.607 -11.214 -1.561
-10.689 -10.741 -0.009
-12.655 -11.254 -1.651
-10.407 -11.300 0.961
-11.699 -12.626 1.025
-12.754 -11.219 -1.794
-8.496 -10.354 1.820
-12.068 -10.837 -1.316
-10.791 -10.857 0.112
-9.759 -9.199 -0.806
-12.235 -10.856 -1.397
-10.342 -12.359 2.056
-10.873 -10.818 -0.004
-10.388 -11.893 1.415
-10.824 -10.806 0.017
-12.086 -10.828 -1.321
-12.753 -11.219 -1.794
-10.438 -12.408 1.996
-9.778 -9.284 -1.057
-12.068 -10.814 -1.351
-9.241 -10.844 1.628
-10.222 -12.098 1.899
-8.966 -10.685 1.666
-9.761 -12.509 2.793
-10.820 -10.790 -0.008
-10.159 -8.673 -4.558
-12.600 -12.969 0.516
-12.652 -11.255 -1.647
-10.659 -11.445 0.668
-12.068 -10.814 -1.352
-12.086 -10.828 -1.321
-12.651 -11.255 -1.647
-9.646 -9.268 -0.474
-12.651 -11.255 -1.647
-10.825 -10.807 0.011
-10.729 -12.531 1.699
-9.346 -10.862 1.625
-12.652 -11.255 -1.647
-12.604 -11.215 -1.557
-12.652 -11.255 -1.647
-10.330 -11.363 0.956
-9.430 -11.958 2.602
-12.639 -11.259 -1.632
-9.556 -11.499 1.676
-10.871 -10.818 -0.004
-10.659 -11.446 0.669
-10.818 -10.789 -0.007
-10.242 -12.666 2.494
-10.210 -12.468 1.880
-10.169 -12.243 2.017
-9.767 -9.223 -0.920
-9.557 -11.499 1.676
-10.660 -11.446 0.668
-10.523 -10.424 0.014
-10.780 -10.838 0.061
-9.397 -11.992 2.664
-7.187 -11.252 4.177
-12.592 -11.219 -1.542
-12.066 -10.838 -1.315
-12.592 -11.219 -1.542
-12.066 -10.815 -1.349
-10.446 -10.477 0.155
-12.029 -10.840 -1.279
-10.446 -10.477 0.155
-10.906 -13.624 2.821
-12.604 -11.215 -1.557
-12.069 -10.837 -1.318
-10.999 -11.941 0.977
-10.788 -10.832 0.098
-10.663 -11.218 0.588
-10.517 -12.438 1.963
-10.316 -10.185 -0.058
-12.596 -13.000 0.547
-10.825 -10.810 0.013
-6.021 -9.009 2.975
-9.721 -12.470 2.794
-10.729 -12.533 1.700
-13.535 -13.892 0.211
-10.293 -14.145 3.284
-10.175 -11.695 1.541
-12.651 -11.255 -1.646
-12.604 -11.216 -1.556
-8.651 -11.510 2.942
-8.245 -10.944 2.747
-10.342 -8.658 -4.756
-9.703 -9.144 -0.749
-10.729 -12.534 1.703
-9.066 -11.536 2.182
-7.192 -11.291 4.199
-12.603 -11.216 -1.555
-10.790 -10.850 0.104
-9.382 -11.920 2.606
-9.376 -11.959 2.646
-7.711 -10.423 2.718
-7.438 -11.673 4.107
-12.604 -11.215 -1.557
-10.169 -11.756 1.596
-12.108 -10.810 -1.391
-10.662 -11.220 0.590
-12.067 -10.837 -1.315
-10.054 -11.786 1.670
-12.654 -11.234 -1.615
-12.598 -12.971 0.520
-12.086 -10.828 -1.321
-8.868 -9.323 0.439
-12.066 -10.837 -1.315
-8.813 -9.565 0.622
-13.533 -13.893 0.213
-12.655 -11.234 -1.617
-10.392 -11.214 0.880
-7.906 -10.655 2.792
-12.068 -10.814 -1.351
-10.329 -14.139 3.257
-5.406 -7.840 2.478
-12.652 -11.255 -1.647
-7.586 -11.538 4.057
-12.086 -10.828 -1.321
-7.438 -11.674 4.107
-8.887 -10.736 1.826
-10.539 -12.497 2.004
-10.524 -11.343 0.766
-12.068 -10.837 -1.317
-10.791 -10.849 0.104
-10.305 -12.334 1.927
-9.755 -11.505 1.728
-9.476 -10.733 1.423
-9.901 -10.780 0.924
-13.352 -13.205 0.011
-12.235 -10.857 -1.396
-5.719 -8.063 2.331
-8.740 -11.393 2.429
-10.523 -11.343 0.767
-8.651 -11.510 2.943
-10.054 -11.540 1.429
-7.190 -11.294 4.202
-10.444 -10.478 0.159
-7.909 -10.630 2.761
-10.523 -11.343 0.767
-7.725 -10.373 2.641
-10.443 -10.477 0.158
-10.131 -10.433 0.409
-8.546 -10.699 2.122
-5.860 -7.432 1.573
-9.706 -9.400 -0.673
-10.343 -8.658 -4.758
-12.652 -11.255 -1.647
-9.772 -9.260 -0.955
-9.037 -11.309 2.058
-10.662 -11.222 0.592
-8.422 -10.664 2.134
-10.381 -10.467 0.208
-9.984 -13.098 3.173
-13.400 -13.737 0.423
-5.385 -7.863 2.525
-8.308 -10.464 2.256
-7.963 -10.399 2.303
-9.582 -11.013 1.489
-12.160 -13.477 1.476
-8.717 -11.424 2.467
-10.337 -8.659 -4.749
-10.652 -11.224 0.604
-12.068 -10.839 -1.313
-9.077 -10.882 1.797
-9.545 -11.448 1.806
-9.829 -12.632 2.687
-12.068 -10.816 -1.348
-8.245 -10.950 2.751
-11.023 -13.073 2.161
-7.936 -10.970 3.082
-12.401 -12.486 0.214
-7.471 -11.681 4.088
-9.087 -11.037 1.895
-12.066 -10.838 -1.314
-11.033 -11.611 0.610
-10.443 -10.476 0.157
-5.720 -8.065 2.332
-8.676 -11.926 3.337
-7.191 -11.296 4.203
-9.792 -9.407 -1.154
-8.010 -10.985 3.021
-12.651 -11.235 -1.612
-8.676 -11.926 3.338
-10.518 -10.424 0.021
-11.914 -14.227 2.194
-7.489 -11.541 4.152
-10.663 -11.220 0.589
-10.343 -8.658 -4.757
-9.407 -12.003 2.655
-9.903 -12.592 2.566
-12.444 -11.237 -1.434
-9.905 -12.590 2.563
-9.792 -9.276 -1.070
-9.067 -11.535 2.181
-12.653 -11.235 -1.614
-10.791 -13.012 2.337
-10.217 -11.600 1.437
-12.598 -12.972 0.521
-12.464 -11.318 -1.377
-10.760 -11.392 0.592
-10.632 -12.817 2.107
-6.865 -9.988 3.189
-12.463 -11.318 -1.377
-10.820 -12.459 1.502
-11.235 -13.274 2.098
-10.820 -12.461 1.504
-12.465 -11.318 -1.380
-10.290 -12.708 2.312
-10.633 -12.816 2.105
-5.111 -7.480 2.446
-7.959 -11.578 3.739
-7.526 -11.312 3.902
-12.352 -11.335 -1.312
-10.633 -12.816 2.105
-10.821 -12.461 1.504
-10.886 -11.688 0.776
-12.537 -11.288 -1.446
-10.752 -11.388 0.598
-7.666 -11.749 3.954
-7.959 -11.579 3.741
-10.893 -10.865 0.043
-7.959 -11.579 3.740
-9.313 -9.553 0.094
-4.002 -7.547 3.607
-5.367 -8.644 3.254
-4.785 -6.579 1.799
-5.674 -7.605 1.975
-7.960 -11.578 3.740
-4.971 -7.333 2.203
-5.367 -8.641 3.252
-7.960 -11.576 3.737
-7.960 -11.578 3.739
-10.634 -12.817 2.106
-10.167 -12.171 2.052
-9.890 -12.514 2.662
-11.818 -10.967 -0.873
-11.117 -13.232 2.179
-11.040 -11.615 0.598
-7.960 -11.578 3.739
-13.461 -13.747 0.370
-8.756 -11.501 2.473
-5.366 -8.644 3.254
-12.465 -11.318 -1.380
-7.958 -11.578 3.741
-10.633 -12.817 2.106
-12.485 -11.290 -1.490
-10.291 -12.709 2.312
-9.076 -11.358 2.062
-7.958 -11.579 3.741
-7.958 -11.579 3.741
-4.950 -6.731 1.852
-9.376 -10.850 1.499
-13.579 -13.730 0.235
-10.045 -11.300 1.175
-5.471 -8.643 3.245
-8.157 -11.596 3.561
-11.559 -13.669 2.215
-5.485 -8.701 3.284
-3.932 -7.268 3.390
-10.168 -12.615 2.403
-6.309 -10.314 4.086
-12.352 -11.335 -1.313
-7.958 -11.577 3.740
-12.604 -11.280 -1.580
-10.199 -10.576 0.522
-12.445 -11.324 -1.356
-5.365 -8.639 3.251
-7.955 -11.531 3.693
-10.633 -12.817 2.107
-10.291 -12.711 2.315
-10.477 -11.195 0.684
-11.948 -10.921 -1.068
-7.150 -11.337 4.264
-9.423 -11.520 1.828
-8.485 -10.901 1.862
-5.561 -9.073 3.557
-10.292 -12.678 2.247
-7.476 -11.603 4.219
-12.270 -11.387 -1.126
-6.308 -10.314 4.088
-12.579 -11.289 -1.548
-12.270 -11.387 -1.127
-7.119 -11.245 4.194
-7.468 -11.687 4.096
-10.820 -12.463 1.506
-12.277 -11.346 -1.173
-10.608 -12.819 2.283
-12.536 -11.303 -1.502
-5.559 -7.947 2.432
-10.089 -13.021 3.009
-10.562 -11.151 0.636
-7.476 -10.810 3.414
-11.128 -11.372 -0.557
-5.101 -7.080 2.057
-5.514 -7.720 2.273
-7.185 -9.577 2.498
-5.263 -9.164 3.959
-7.961 -11.577 3.737
-6.343 -9.987 3.704
-12.537 -11.303 -1.503
-10.752 -11.389 0.599
-5.364 -8.653 3.266
-12.400 -11.345 -1.295
-7.181 -9.582 2.510
-7.815 -11.554 3.845
-10.059 -8.692 -4.437
-10.818 -12.462 1.508
-9.970 -12.593 2.384
-11.324 -11.432 -0.626
-12.526 -11.306 -1.489
-5.787 -9.843 4.121
-5.421 -7.913 2.582
-7.487 -11.546 4.158
-5.501 -7.653 2.213
-7.470 -11.686 4.094
-7.488 -11.547 4.159
-4.981 -7.407 2.447
-11.406 -11.390 -0.761
-8.976 -10.236 1.358
-12.264 -11.389 -1.119
-10.294 -10.508 0.330
-12.297 -11.318 -1.222
-7.408 -9.609 2.309
-12.404 -11.344 -1.300
-5.522 -8.155 2.616
-5.365 -8.641 3.254
-7.488 -11.546 4.157
-10.613 -11.225 0.647
-5.747 -8.832 3.080
-10.252 -12.707 2.311
-12.560 -11.270 -1.482
-11.373 -11.367 -0.713
-8.038 -10.462 2.463
-7.472 -11.685 4.090
-7.489 -11.545 4.155
-10.471 -10.669 0.223
-6.341 -9.983 3.702
-11.373 -11.367 -0.714
-10.290 -12.677 2.248
-9.852 -12.621 2.651
-7.816 -11.546 3.836
-8.781 -11.524 2.473
-7.960 -11.578 3.738
-10.561 -11.154 0.640
-6.309 -10.322 4.096
-7.469 -11.687 4.095
-5.386 -7.976 2.678
-12.476 -11.276 -1.444
-8.860 -10.246 1.466
-11.402 -11.390 -0.759
-5.111 -7.444 2.411
-7.900 -10.680 2.813
-6.069 -8.047 2.027
-7.489 -11.548 4.159
-7.092 -9.611 2.622
-9.476 -12.410 2.569
-7.472 -11.684 4.090
-11.287 -11.406 -0.580
-5.390 -7.823 2.475
-10.855 -11.492 -0.121
-10.315 -12.604 2.090
-8.594 -10.895 2.022
-6.340 -9.984 3.704
-6.305 -10.317 4.094
-11.421 -11.367 -0.801
-7.278 -10.749 3.541
-7.330 -10.794 3.540
-7.813 -11.541 3.835
-5.387 -7.971 2.672
-8.779 -11.521 2.470
-10.738 -10.887 0.189
-5.157 -7.443 2.112
-6.207 -10.280 4.126
-7.486 -11.546 4.159
-11.374 -11.366 -0.715
-6.341 -9.985 3.704
-10.057 -12.524 2.306
-6.156 -8.014 1.669
-8.826 -11.444 2.371
-5.838 -8.207 2.431
-5.386 -8.528 3.201
-7.470 -11.694 4.094
-7.166 -9.578 2.517
-10.194 -10.547 0.497
-10.224 -12.702 2.339
-7.410 -11.447 4.139
-9.339 -10.834 1.485
-9.800 -12.643 2.723
-11.433 -11.411 -0.670
-7.719 -11.662 3.948
-10.395 -12.314 1.999
-9.082 -11.423 2.103
-6.339 -10.196 3.928
-8.744 -11.425 2.438
-5.396 -7.954 2.647
-6.295 -10.255 4.036
-7.815 -11.561 3.856
-12.526 -11.306 -1.490
-2.996 -5.731 2.775
-8.503 -10.255 1.843
-11.228 -11.445 -0.469
-7.815 -11.561 3.855
-8.828 -11.444 2.369
-9.493 -9.286 -0.522
-6.343 -9.985 3.702
-7.815 -11.560 3.853
-8.425 -10.510 2.093
-12.270 -11.348 -1.166
-10.322 -11.364 1.122
-7.120 -11.246 4.192
-7.469 -11.686 4.095
-5.811 -7.746 1.706
-10.056 -12.531 2.315
-5.103 -7.314 2.292
-10.055 -12.552 2.351
-7.814 -11.573 3.867
-4.907 -6.992 2.143
-9.849 -12.623 2.655
-5.227 -8.474 3.236
-10.198 -10.577 0.523
-10.053 -12.524 2.312
-10.696 -10.472 -0.198
-10.618 -11.238 0.645
-10.134 -10.563 0.566
-10.739 -10.878 0.179
-6.021 -9.933 3.976
-10.538 -13.422 2.945
-11.394 -11.344 -0.753
-12.424 -11.293 -1.387
-7.182 -9.574 2.500
-12.634 -11.261 -1.634
-7.487 -11.545 4.158
-10.709 -13.403 2.780
-10.309 -12.606 2.099
-5.398 -7.749 2.392
-6.331 -10.195 3.935
-5.571 -7.505 1.979
-10.742 -10.873 0.171
-10.111 -10.579 0.612
-5.787 -9.840 4.119
-5.509 -9.040 3.578
-7.470 -11.688 4.095
-12.609 -13.010 0.541
-7.794 -11.468 3.758
-9.912 -10.260 0.446
-11.289 -11.407 -0.579
-10.240 -10.543 0.445
-10.308 -12.608 2.102
-11.157 -13.308 2.165
-5.713 -6.490 0.826
-10.429 -12.704 2.127
-12.343 -11.321 -1.269
-11.148 -13.219 2.127
-12.473 -11.277 -1.441
-5.498 -8.699 3.266
-9.071 -10.752 1.687
-5.043 -6.682 1.695
-12.520 -11.292 -1.429
-5.191 -7.386 2.157
-6.407 -10.027 3.684
-10.239 -10.543 0.446
-12.512 -11.296 -1.416
-6.239 -7.694 1.498
-10.539 -13.414 2.939
-5.521 -7.712 2.258
-6.329 -10.216 3.959
-10.198 -10.578 0.525
-8.823 -11.445 2.374
-11.394 -11.345 -0.753
-9.913 -9.815 0.020
-8.437 -9.264 0.878
-6.312 -10.308 4.078
-5.483 -8.718 3.299
-10.302 -12.606 2.105
-5.475 -9.638 4.233
-10.504 -10.441 0.048
-12.525 -11.301 -1.502
-12.473 -11.277 -1.442
-6.279 -10.247 4.042
-10.442 -12.065 1.732
-10.723 -11.244 0.551
-5.559 -9.075 3.563
-11.960 -10.892 -1.140
-12.613 -13.013 0.540
-4.737 -6.893 2.246
-6.343 -9.985 3.702
-8.828 -11.444 2.369
-12.626 -12.988 0.503
-5.582 -7.935 2.395
-10.007 -10.610 0.747
-8.695 -9.465 0.796
-12.344 -11.321 -1.271
-6.141 -9.128 3.041
-10.713 -13.397 2.771
-10.005 -10.612 0.750
-5.387 -7.971 2.672
-12.643 -13.002 0.500
-9.986 -12.471 2.318
-4.737 -6.887 2.239
-10.581 -12.738 2.241
-12.628 -11.265 -1.615
-10.670 -10.912 0.249
-13.561 -13.895 0.187
-10.553 -10.645 0.092
-9.082 -11.547 2.177
-12.303 -13.515 1.366
-10.239 -10.543 0.445
-5.548 -8.545 3.060
-10.610 -13.901 3.381
-10.270 -10.516 0.380
-8.665 -11.403 2.497
-3.906 -7.115 3.261
-10.365 -11.908 1.530
-10.052 -12.602 2.381
-7.102 -9.567 2.569
-10.334 -10.515 0.316
-5.110 -7.534 2.489
-12.593 -12.996 0.545
-4.042 -6.393 2.422
-5.584 -7.933 2.392
-10.692 -10.811 0.117
-4.406 -8.551 4.201
-8.666 -11.402 2.496
-11.393 -11.345 -0.752
-8.651 -11.510 2.942
-9.850 -12.616 2.647
-10.313 -12.581 2.071
-6.894 -8.771 1.678
-10.718 -11.238 0.550
-6.299 -10.292 4.078
-7.183 -9.579 2.501
-7.280 -10.747 3.536
-11.122 -10.399 -0.589
-8.936 -10.943 1.941
-10.718 -10.868 0.168
-4.001 -7.531 3.586
-12.287 -13.519 1.387
-10.057 -12.531 2.314
-10.079 -13.201 3.130
-10.059 -12.526 2.307
-10.689 -13.395 2.792
-5.409 -7.943 2.622
-8.758 -11.418 2.420
-9.507 -9.327 -0.382
-9.214 -10.818 1.595
-7.750 -11.541 3.893
-10.056 -12.531 2.315
-7.489 -11.546 4.157
-8.932 -10.213 1.371
-5.910 -7.177 1.406
-10.692 -13.382 2.774
-9.019 -10.773 1.780
-13.530 -13.894 0.219
-11.294 -13.318 2.172
-10.216 -10.526 0.433
-8.715 -10.031 1.406
-3.604 -5.297 1.738
-6.303 -10.064 3.797
-8.734 -11.454 2.506
-6.068 -8.043 2.024
-6.341 -9.985 3.704
-10.266 -10.517 0.385
-11.737 -12.772 1.074
-13.459 -13.749 0.374
-6.873 -9.991 3.184
-8.832 -11.488 2.743
-2.993 -4.806 1.834
-10.130 -10.429 0.406
-10.336 -10.514 0.313
-8.525 -11.731 3.244
-8.825 -11.444 2.372
-12.345 -11.321 -1.272
-4.830 -6.829 1.953
-8.740 -11.406 2.427
-10.819 -10.761 -0.009
-7.740 -11.604 3.988
-4.166 -6.989 2.854
-11.396 -11.344 -0.755
-9.851 -12.618 2.648
-10.154 -11.936 1.813
-6.475 -8.228 1.834
-7.453 -11.380 3.874
-5.224 -8.474 3.239
-12.298 -11.318 -1.224
-10.241 -10.542 0.443
-5.381 -7.802 2.468
-5.992 -6.691 0.607
-6.342 -9.986 3.704
-10.055 -12.528 2.310
-4.962 -7.111 2.222
-11.685 -12.634 1.049
-6.342 -9.985 3.704
-8.744 -11.425 2.438
-10.563 -11.153 0.638
-10.055 -12.531 2.315
-4.085 -6.970 2.956
-5.814 -9.859 4.109
-10.196 -10.577 0.526
-5.384 -7.959 2.663
-9.993 -14.007 3.789
-6.234 -10.263 4.109
-4.785 -6.955 2.195
-6.224 -10.172 4.049
-12.424 -11.294 -1.386
-6.257 -7.616 1.360
-9.082 -11.544 2.174
-5.844 -8.187 2.404
-8.915 -10.246 1.426
-7.185 -9.574 2.497
-10.681 -10.739 0.005
-10.053 -12.545 2.329
-7.909 -10.630 2.762
-9.540 -11.819 2.326
-12.479 -11.183 -1.566
-6.265 -7.627 1.369
-3.017 -5.697 2.715
-11.110 -13.203 2.160
-11.978 -14.237 2.137
-10.317 -11.866 1.542
-6.645 -9.895 3.305
-5.914 -8.068 2.225
-10.059 -10.455 0.503
-12.324 -12.793 0.567
-13.137 -14.372 0.586
-6.241 -7.632 1.433
-8.556 -11.716 3.190
-10.599 -13.012 2.515
-12.651 -11.235 -1.612
-10.533 -11.337 0.784
-6.816 -9.524 2.816
-6.219 -10.366 4.223
-12.446 -11.287 -1.411
-12.658 -11.233 -1.621
-6.334 -9.992 3.719
-4.327 -7.485 3.214
-8.642 -11.413 2.532
-12.446 -11.287 -1.411
-8.565 -11.305 2.816
-9.963 -12.502 2.376
-7.178 -10.691 3.574
-11.963 -10.892 -1.141
-11.354 -11.365 -0.702
-4.460 -5.866 1.486
-7.456 -11.692 4.114
-5.567 -10.083 4.572
-10.508 -11.166 0.635
-2.969 -6.140 3.188
-6.248 -7.649 1.461
-5.363 -8.644 3.258
-5.363 -8.643 3.257
-12.445 -11.287 -1.409
-12.445 -11.287 -1.409
-4.994 -8.638 3.483
-10.710 -11.247 0.567
-10.580 -11.353 0.746
-5.558 -9.076 3.564
-8.528 -10.244 1.801
-3.093 -6.616 3.559
-11.357 -11.365 -0.704
-8.224 -8.538 0.407
-6.173 -10.022 3.901
-4.039 -6.386 2.419
-8.309 -10.494 2.360
-12.493 -11.264 -1.474
-10.036 -12.535 2.339
-6.508 -9.950 3.511
-7.364 -8.745 1.409
-5.632 -7.531 1.881
-6.179 -7.462 1.231
-5.086 -7.051 2.015
-6.145 -7.444 1.343
-10.543 -13.419 2.939
-12.447 -11.287 -1.412
-9.834 -12.632 2.680
-7.933 -12.014 4.074
-11.359 -11.364 -0.707
-6.220 -7.583 1.336
-11.124 -13.233 2.173
-11.120 -11.372 -0.552
-4.913 -8.438 3.485
-6.062 -9.923 3.912
-2.960 -6.264 3.335
-8.649 -11.485 2.787
-8.663 -12.071 3.375
-4.989 -6.518 1.511
-6.781 -10.794 2.527
-4.610 -6.665 2.056
-5.490 -8.674 3.252
-12.447 -11.287 -1.411
-7.172 -11.358 4.269
-8.803 -11.809 3.094
-5.559 -7.939 2.426
-5.886 -7.311 1.495
-9.285 -11.725 2.378
-7.446 -11.393 3.889
-7.717 -11.541 3.919
-8.722 -11.441 2.477
-6.730 -7.593 0.914
-6.302 -10.308 4.081
-12.658 -11.233 -1.621
-11.358 -11.364 -0.706
-9.630 -11.235 1.425
-7.148 -9.588 2.527
-9.148 -12.125 3.109
-6.071 -8.052 2.031
-10.534 -11.337 0.783
-5.467 -8.729 3.326
-10.249 -10.538 0.431
-11.040 -13.049 2.109
-7.089 -10.266 3.221
-8.761 -10.228 1.545
-11.042 -13.050 2.107
-8.817 -10.380 1.644
-7.582 -10.369 2.851
-7.041 -10.055 3.060
-11.005 -12.841 1.908
-11.259 -13.197 2.033
-8.258 -11.683 3.500
-7.616 -9.542 2.042
-8.330 -10.842 2.563
-8.815 -12.291 3.596
-8.287 -11.000 2.814
-9.016 -11.636 2.701
-7.610 -9.601 2.106
-6.662 -9.925 3.306
-7.493 -10.336 2.910
-9.168 -10.999 1.788
-7.491 -10.287 2.867
-7.582 -9.700 2.143
-7.493 -10.347 2.920
-8.358 -10.884 2.572
-7.390 -9.766 2.441
-8.259 -11.247 3.055
-11.127 -13.166 2.144
-9.146 -11.037 1.798
-8.763 -10.364 1.682
-8.929 -12.340 3.531
-11.179 -13.195 2.113
-11.208 -13.160 2.056
-7.159 -10.060 2.952
-8.005 -9.601 1.539
-8.403 -9.887 1.552
-9.070 -11.040 1.833
-8.250 -9.740 1.464
-8.830 -12.350 3.642
-8.278 -11.683 3.479
-8.501 -10.961 2.548
-8.501 -10.968 2.555
-8.736 -10.364 1.709
-8.005 -9.589 1.523
-7.613 -9.551 2.054
-7.391 -9.764 2.439
-9.198 -10.928 1.731
-7.494 -10.323 2.897
-7.773 -10.510 2.816
-8.273 -10.551 2.269
-8.243 -10.462 2.289
-8.538 -10.662 2.200
-8.187 -10.371 2.226
-8.493 -10.715 2.259
-8.715 -12.354 3.760
-8.618 -9.996 1.451
-8.278 -10.506 2.231
-8.763 -10.364 1.682
-9.738 -13.516 3.913
-8.799 -12.211 3.529
-8.772 -12.351 3.699
-7.494 -10.357 2.927
-8.709 -10.361 1.733
-8.400 -9.914 1.577
-11.180 -13.197 2.114
-8.022 -9.604 1.514
-8.022 -9.597 1.509
-8.130 -10.182 2.132
-8.719 -10.417 1.481
-8.456 -9.800 1.426
-8.130 -10.182 2.132
-8.710 -10.216 1.589
-7.494 -10.334 2.908
-8.250 -9.742 1.462
-8.709 -10.362 1.733
-8.286 -10.999 2.812
-7.955 -9.791 1.853
-8.415 -10.188 1.855
-7.627 -9.848 2.292
-9.737 -13.516 3.913
-7.155 -10.060 2.955
-8.743 -12.082 3.421
-7.956 -9.050 1.188
-11.411 -13.277 1.961
-8.537 -10.669 2.206
-8.759 -10.217 1.535
-8.962 -11.679 2.782
-8.524 -10.689 2.234
-7.585 -9.163 1.669
-7.161 -10.297 3.177
-8.287 -10.997 2.809
-8.335 -11.411 3.152
-8.759 -10.279 1.600
-8.975 -10.893 2.005
-8.798 -9.574 0.859
-7.751 -9.684 2.040
-8.772 -12.351 3.700
-11.407 -13.276 1.964
-11.261 -13.197 2.031
-8.252 -10.319 2.096
-8.288 -10.590 2.289
-8.762 -10.364 1.683
-8.538 -10.612 2.148
-8.968 -11.659 2.761
-8.222 -10.215 2.009
-8.537 -10.698 2.237
-8.798 -9.581 0.868
-11.395 -13.273 1.972
-7.751 -9.715 2.071
-7.581 -9.777 2.193
-8.027 -10.181 2.190
-8.716 -9.476 0.844
-7.689 -9.635 2.055
-8.250 -9.741 1.469
-9.019 -10.428 1.205
-8.763 -10.363 1.682
-7.508 -9.678 2.102
-8.283 -11.681 3.473
-8.266 -10.468 2.202
-8.655 -11.167 2.586
-9.219 -12.377 3.268
-8.423 -10.188 1.847
-9.105 -9.979 0.913
-7.691 -9.614 2.033
-11.212 -13.160 2.051
-9.106 -11.038 1.834
-7.712 -9.894 2.262
-9.085 -10.439 1.135
-8.772 -12.349 3.698
-8.512 -10.986 2.563
-8.760 -10.215 1.533
-9.103 -9.980 0.916
-9.323 -11.207 2.035
-6.697 -9.901 3.271
-7.749 -9.685 2.042
-6.695 -9.803 3.156
-8.111 -11.498 3.569
-8.110 -11.450 3.520
-11.405 -13.275 1.964
-8.892 -10.225 1.411
-6.888 -9.944 3.150
-6.743 -10.012 3.340
-8.233 -9.751 1.508
-7.466 -9.598 2.226
-9.514 -13.756 4.304
-7.618 -9.547 2.045
-10.864 -11.374 0.557
-7.617 -9.540 2.039
-8.288 -10.995 2.805
-11.191 -13.146 2.043
-9.981 -13.140 3.159
-9.176 -11.214 2.190
-8.402 -9.911 1.577
-8.702 -10.000 1.373
-8.293 -10.537 2.239
-8.294 -10.498 2.208
-9.018 -10.428 1.207
-10.262 -13.588 3.459
-9.015 -10.428 1.210
-8.703 -10.001 1.373
-11.169 -13.186 2.115
-9.369 -11.205 1.987
-9.206 -11.070 1.902
-8.762 -10.363 1.682
-9.153 -9.976 0.851
-8.703 -10.015 1.383
-9.421 -11.204 1.931
-9.107 -9.979 0.911
-7.694 -9.618 2.032
-7.453 -8.343 0.992
-10.269 -13.536 3.403
-8.425 -9.796 1.459
-9.150 -11.035 1.793
-8.581 -11.017 2.522
-8.473 -11.176 2.882
-8.391 -9.307 0.955
-10.023 -12.559 2.614
-8.402 -9.902 1.571
-8.828 -9.674 0.911
-8.543 -10.377 1.828
-9.377 -12.380 3.117
-7.863 -9.822 2.032
-8.896 -10.890 2.080
-9.047 -9.935 0.914
-8.400 -9.922 1.596
-8.250 -9.730 1.472
-9.737 -13.526 3.922
-9.098 -9.845 0.831
-9.405 -11.282 2.055
-6.860 -9.962 3.196
-7.870 -9.697 1.888
-11.182 -13.197 2.112
-11.130 -13.167 2.143
-9.155 -9.977 0.851
-8.832 -10.254 1.502
-9.107 -9.977 0.909
-7.386 -9.778 2.460
-11.401 -13.274 1.967
-9.155 -9.976 0.849
-8.251 -9.753 1.479
-9.108 -9.977 0.909
-8.432 -10.951 2.562
-8.659 -9.967 1.339
-8.185 -10.704 2.590
-9.039 -10.426 1.187
-8.508 -11.539 3.207
-8.761 -12.104 3.470
-10.036 -12.564 2.606
-9.572 -11.216 1.790
-8.510 -10.977 2.556
-9.978 -12.669 2.715
-8.966 -11.685 2.782
-8.289 -10.529 2.242
-9.079 -10.454 1.128
-8.392 -9.306 0.952
-7.369 -8.719 1.412
-8.861 -10.235 1.453
-9.097 -9.867 0.852
-9.080 -11.057 1.881
-8.207 -9.791 1.696
-8.245 -9.806 1.659
-8.710 -10.016 1.353
-8.251 -9.725 1.464
-8.917 -9.166 0.317
-7.955 -9.058 1.196
-9.341 -11.289 2.125
-8.368 -9.999 1.709
-9.108 -9.980 0.912
-8.374 -10.711 2.404
-7.795 -9.283 1.491
-11.873 -13.364 1.594
-9.152 -9.980 0.856
-8.825 -10.243 1.497
-7.910 -10.674 2.701
-8.286 -10.573 2.272
-9.108 -9.976 0.908
-8.827 -10.177 1.422
-8.629 -10.723 2.142
-8.095 -10.483 2.433
-7.503 -9.608 2.198
-8.389 -9.884 1.565
-8.394 -9.305 0.949
-8.895 -10.898 2.088
-8.832 -10.256 1.504
-8.251 -9.744 1.479
-8.589 -11.018 2.515
-8.071 -9.843 1.690
-8.832 -10.287 1.535
-9.672 -11.073 1.485
-8.211 -9.789 1.691
-8.515 -10.985 2.558
-8.515 -10.984 2.558
-7.978 -9.674 1.740
-8.763 -10.364 1.682
-7.694 -9.657 2.073
-9.213 -10.013 0.842
-9.632 -11.210 1.724
-8.413 -9.318 0.976
-8.831 -10.257 1.506
-9.084 -11.056 1.875
-8.516 -10.985 2.557
-7.503 -9.607 2.197
-8.831 -10.253 1.502
-7.472 -8.333 0.964
-8.762 -10.232 1.548
-8.413 -9.317 0.976
-7.788 -10.082 2.389
-7.863 -9.820 2.028
-10.036 -12.544 2.565
-8.831 -10.271 1.520
-11.205 -13.171 2.070
-8.643 -9.963 1.354
-9.067 -10.203 0.658
-7.936 -9.010 1.183
-7.955 -9.073 1.209
-9.958 -12.756 2.842
-9.293 -11.211 2.069
-9.686 -10.452 0.828
-9.271 -10.985 1.757
-9.651 -11.189 1.608
-10.392 -13.722 3.411
-7.501 -9.606 2.198
-8.551 -10.504 2.029
-8.832 -10.254 1.502
-9.527 -11.297 1.947
-7.694 -9.612 2.030
-8.762 -10.350 1.669
-11.207 -13.147 2.043
-9.374 -11.208 1.986
-8.757 -9.994 1.332
-8.818 -10.371 1.634
-8.412 -9.318 0.978
-10.328 -12.673 2.406
-11.182 -13.197 2.113
-7.472 -8.339 0.970
-8.134 -10.181 2.127
-7.953 -9.068 1.209
-7.500 -9.609 2.201
-7.952 -9.038 1.176
-9.731 -11.347 1.789
-10.060 -12.546 2.570
-8.418 -9.822 1.499
-9.096 -9.867 0.853
-8.812 -10.241 1.508
-8.747 -10.239 1.563
-8.812 -10.231 1.498
-8.830 -10.263 1.516
-7.787 -10.086 2.396
-10.061 -12.547 2.571
-9.412 -11.303 2.067
-9.268 -11.015 1.791
-8.831 -9.763 0.989
-12.186 -13.453 1.359
-8.002 -10.036 2.189
-11.484 -13.277 1.885
-9.352 -10.505 1.218
-8.412 -9.318 0.978
-9.050 -9.881 0.903
-8.750 -10.240 1.563
-11.210 -13.162 2.056
-8.568 -9.848 1.330
-7.894 -9.166 1.372
-8.577 -9.820 1.340
-9.259 -10.900 1.707
-9.018 -10.428 1.207
-8.817 -10.370 1.634
-8.440 -9.311 0.910
-11.262 -13.198 2.031
-7.275 -9.665 2.418
-7.987 -9.125 1.231
-9.635 -10.929 1.334
-8.286 -11.000 2.812
-8.369 -9.899 1.597
-10.003 -12.541 2.616
-7.989 -9.074 1.177
-7.703 -8.892 1.264
-7.953 -9.111 1.249
-10.105 -12.872 2.875
-9.400 -11.298 2.075
-11.733 -13.202 1.518
-10.663 -13.596 3.067
-7.788 -10.084 2.390
-7.459 -8.283 0.929
-8.957 -11.682 2.789
-7.861 -9.820 2.031
-9.215 -10.016 0.844
-8.978 -10.452 1.546
-7.854 -9.712 1.895
-8.576 -9.820 1.337
-8.573 -10.080 1.614
-9.651 -11.189 1.608
-9.519 -12.052 2.490
-8.831 -10.253 1.502
-8.893 -10.889 2.082
-9.675 -11.079 1.488
-8.705 -10.005 1.373
-9.243 -10.860 1.653
-8.748 -10.241 1.565
-8.526 -9.959 1.367
-9.038 -10.426 1.188
-9.727 -11.004 1.318
-8.578 -9.818 1.334
-8.413 -9.318 0.976
-8.288 -9.803 1.615
-8.394 -9.306 0.951
-9.213 -10.014 0.843
-9.346 -10.490 1.207
-8.877 -11.626 2.859
-8.776 -9.934 1.239
-7.472 -8.337 0.969
-8.207 -9.446 1.333
-9.261 -11.031 1.817
-8.988 -10.944 2.039
-8.011 -9.109 1.193
-10.920 -12.656 1.794
-9.014 -11.677 2.722
-9.179 -11.027 1.755
-9.193 -10.362 1.254
-9.429 -11.339 2.087
-8.000 -9.220 1.314