-6.482 -8.959 2.485
-6.482 -8.959 2.485
-6.482 -8.959 2.485
-6.482 -8.959 2.485
-6.482 -8.959 2.485
-6.482 -8.959 2.485
-6.482 -8.959 2.485
-6.482 -8.959 2.485
-6.482 -8.959 2.485
-6.482 -8.959 2.485
-6.490 -8.962 2.480
-7.173 -9.111 1.948
-6.470 -8.956 2.493
-6.868 -8.663 1.800
-6.868 -8.664 1.801
-6.451 -8.952 2.509
-6.474 -8.960 2.494
-6.474 -8.960 2.494
-6.128 -8.879 2.759
-6.453 -8.953 2.507
-6.453 -8.953 2.507
-6.453 -8.953 2.507
-6.453 -8.953 2.507
-6.453 -8.953 2.507
-6.476 -8.960 2.492
-6.476 -8.960 2.492
-6.476 -8.960 2.492
-6.476 -8.960 2.492
-6.476 -8.960 2.492
-6.476 -8.960 2.492
-6.476 -8.960 2.492
-6.476 -8.960 2.492
-6.128 -8.879 2.759
-8.957 -10.343 1.401
-6.790 -7.707 0.933
-6.790 -7.708 0.933
-6.474 -8.960 2.494
-7.673 -8.096 0.434
-7.162 -9.112 1.960
-6.868 -8.672 1.808
-6.868 -8.673 1.809
-6.451 -8.953 2.509
-6.868 -8.673 1.809
-6.451 -8.953 2.509
-6.451 -8.952 2.509
-6.474 -8.960 2.494
-6.474 -8.960 2.494
-6.474 -8.960 2.494
-6.868 -8.676 1.812
-6.451 -8.953 2.509
-6.474 -8.960 2.494
-6.474 -8.960 2.494
-6.451 -8.952 2.509
-7.163 -9.112 1.958
-6.451 -8.953 2.509
-6.451 -8.953 2.509
-7.414 -8.049 0.646
-6.868 -8.669 1.805
-6.868 -8.671 1.807
-6.868 -8.674 1.810
-6.474 -8.960 2.494
-7.163 -9.112 1.958
-6.474 -8.960 2.494
-6.451 -8.953 2.509
-6.868 -8.673 1.809
-6.474 -8.960 2.494
-6.474 -8.960 2.494
-6.868 -8.674 1.810
-6.474 -8.960 2.494
-6.474 -8.960 2.494
-6.474 -8.960 2.494
-7.414 -8.049 0.646
-6.868 -8.673 1.809
-6.474 -8.960 2.494
-6.474 -8.960 2.494
-7.128 -9.026 1.910
-7.162 -9.112 1.959
-7.162 -9.112 1.959
-6.450 -8.952 2.510
-6.473 -8.960 2.495
-6.868 -8.674 1.811
-7.164 -9.112 1.958
-6.474 -8.960 2.494
-6.474 -8.960 2.494
-6.474 -8.960 2.494
-7.163 -9.112 1.958
-6.474 -8.960 2.494
-7.128 -9.026 1.910
-6.473 -8.960 2.495
-6.473 -8.960 2.495
-7.163 -9.112 1.959
-6.809 -8.569 1.764
-6.868 -8.674 1.810
-7.129 -9.027 1.910
-7.129 -9.027 1.910
-6.868 -8.675 1.811
-7.414 -8.049 0.646
-6.868 -8.676 1.812
-6.868 -8.675 1.811
-6.474 -8.960 2.494
-6.474 -8.960 2.494
-6.474 -8.960 2.494
-7.183 -9.115 1.942
-6.474 -8.960 2.494
-6.474 -8.960 2.494
-6.474 -8.960 2.494
-7.554 -8.055 0.512
-7.674 -8.096 0.434
-6.472 -8.960 2.495
-6.472 -8.960 2.495
-7.674 -8.096 0.434
-6.472 -8.960 2.495
-6.472 -8.960 2.495
-6.472 -8.960 2.495
-6.868 -8.674 1.810
-7.164 -9.112 1.958
-7.164 -9.112 1.958
-7.499 -8.059 0.571
-6.868 -8.673 1.809
-6.474 -8.960 2.494
-6.474 -8.960 2.494
-6.474 -8.960 2.494
-7.163 -9.112 1.958
-6.868 -8.674 1.810
-6.868 -8.673 1.809
-7.164 -9.112 1.958
-7.674 -8.096 0.434
-7.129 -9.027 1.910
-7.129 -9.027 1.910
-6.472 -8.960 2.495
-6.472 -8.960 2.495
-6.809 -8.565 1.759
-6.474 -8.960 2.494
-7.163 -9.112 1.958
-6.474 -8.960 2.494
-7.128 -9.026 1.910
-7.128 -9.026 1.910
-6.473 -8.960 2.495
-6.868 -8.675 1.811
-6.474 -8.960 2.494
-6.474 -8.960 2.494
-6.868 -8.670 1.807
-7.164 -9.112 1.958
-7.164 -9.112 1.958
-6.868 -8.673 1.809
-6.451 -8.952 2.509
-7.183 -9.115 1.942
-6.868 -8.674 1.810
-6.868 -8.673 1.809
-6.868 -8.677 1.813
-7.414 -8.049 0.646
-8.950 -10.360 1.425
-7.511 -9.114 1.618
-7.128 -9.026 1.910
-7.673 -8.096 0.435
-6.869 -8.674 1.809
-6.474 -8.960 2.494
-6.868 -8.674 1.810
-7.183 -9.115 1.941
-6.868 -8.673 1.809
-6.474 -8.960 2.494
-6.474 -8.960 2.494
-7.674 -8.096 0.434
-7.182 -9.115 1.943
-7.674 -8.096 0.434
-7.674 -8.096 0.434
-7.182 -9.115 1.943
-6.868 -8.673 1.809
-6.868 -8.672 1.808
-7.674 -8.096 0.434
-7.674 -8.096 0.434
-6.780 -7.709 0.945
-7.163 -9.112 1.959
-7.674 -8.096 0.434
-7.162 -9.112 1.960
-6.472 -8.960 2.495
-6.472 -8.960 2.495
-6.868 -8.673 1.809
-7.164 -9.112 1.958
-6.868 -8.674 1.810
-7.164 -9.112 1.958
-7.183 -9.115 1.941
-6.474 -8.960 2.494
-7.163 -9.112 1.958
-6.868 -8.672 1.808
-7.674 -8.096 0.434
-7.674 -8.096 0.434
-6.127 -8.879 2.759
-7.165 -9.112 1.957
-7.165 -9.112 1.957
-7.643 -8.064 0.433
-7.499 -8.059 0.571
-7.674 -8.096 0.434
-7.674 -8.096 0.434
-7.674 -8.096 0.434
-7.182 -9.115 1.943
-7.182 -9.115 1.943
-6.472 -8.960 2.495
-7.163 -9.112 1.959
-7.182 -9.115 1.942
-7.128 -9.026 1.910
-7.163 -9.112 1.959
-7.128 -9.026 1.910
-6.868 -8.673 1.809
-6.127 -8.879 2.759
-6.868 -8.675 1.811
-7.164 -9.112 1.958
-7.540 -8.777 1.251
-7.540 -8.777 1.251
-6.868 -8.675 1.811
-7.540 -8.778 1.252
-7.162 -9.112 1.960
-7.674 -8.097 0.434
-7.162 -9.112 1.960
-7.499 -8.059 0.571
-7.643 -8.064 0.433
-7.183 -9.115 1.942
-7.163 -9.112 1.959
-6.868 -8.672 1.808
-6.868 -8.674 1.810
-7.540 -8.778 1.251
-7.643 -8.064 0.432
-7.643 -8.064 0.432
-7.540 -8.776 1.250
-6.127 -8.879 2.759
-6.127 -8.879 2.759
-7.127 -9.026 1.910
-6.473 -8.960 2.495
-7.163 -9.112 1.959
-8.959 -10.362 1.414
-7.414 -8.049 0.646
-6.868 -8.673 1.809
-6.868 -8.672 1.808
-6.474 -8.960 2.494
-6.474 -8.960 2.494
-6.474 -8.960 2.494
-7.183 -9.115 1.942
-7.163 -9.112 1.958
-7.539 -8.774 1.249
-7.182 -9.115 1.943
-7.674 -8.096 0.434
-7.540 -8.774 1.248
-7.182 -9.115 1.943
-7.182 -9.115 1.943
-7.539 -8.772 1.247
-7.674 -8.096 0.434
-6.868 -8.673 1.809
-7.674 -8.096 0.434
-7.505 -8.057 0.562
-7.163 -9.112 1.959
-7.163 -9.112 1.959
-7.163 -9.112 1.959
-7.183 -9.115 1.942
-6.867 -8.665 1.802
-8.061 -9.876 1.826
-8.061 -9.876 1.826
-7.547 -8.749 1.216
-7.421 -8.047 0.637
-6.867 -8.661 1.798
-7.988 -9.857 1.880
-7.184 -9.115 1.941
-7.547 -8.749 1.216
-7.182 -9.115 1.943
-7.182 -9.115 1.943
-7.162 -9.112 1.959
-7.129 -9.027 1.911
-7.162 -9.112 1.960
-7.674 -8.096 0.434
-7.162 -9.112 1.960
-7.182 -9.115 1.943
-7.674 -8.096 0.434
-6.868 -8.674 1.810
-7.128 -9.027 1.910
-8.062 -9.876 1.825
-7.182 -9.115 1.943
-7.182 -9.115 1.943
-8.959 -10.362 1.414
-7.499 -8.058 0.570
-6.127 -8.879 2.759
-7.185 -9.115 1.940
-7.185 -9.115 1.940
-7.673 -8.096 0.435
-7.987 -9.857 1.880
-6.869 -8.675 1.810
-7.184 -9.115 1.941
-7.164 -9.112 1.958
-6.474 -8.960 2.494
-8.062 -9.876 1.825
-7.163 -9.112 1.958
-7.163 -9.112 1.958
-6.868 -8.686 1.822
-6.474 -8.960 2.494
-7.163 -9.112 1.958
-7.163 -9.112 1.958
-7.128 -9.026 1.910
-6.473 -8.960 2.495
-7.128 -9.026 1.910
-7.540 -8.800 1.274
-7.128 -9.026 1.910
-7.182 -9.115 1.943
-7.182 -9.115 1.943
-7.182 -9.115 1.942
-7.182 -9.115 1.943
-7.163 -9.112 1.959
-7.539 -8.776 1.250
-6.868 -8.684 1.820
-8.063 -9.876 1.824
-8.063 -9.876 1.824
-7.183 -9.115 1.941
-6.474 -8.960 2.494
-7.499 -8.059 0.571
-8.061 -9.876 1.826
-7.183 -9.115 1.942
-8.061 -9.876 1.826
-7.183 -9.115 1.942
-7.163 -9.112 1.959
-7.163 -9.112 1.959
-7.163 -9.112 1.959
-7.128 -9.027 1.910
-7.162 -9.112 1.960
-7.162 -9.112 1.960
-7.182 -9.115 1.943
-7.182 -9.115 1.943
-7.162 -9.112 1.960
-7.128 -9.026 1.910
-7.182 -9.115 1.943
-8.062 -9.876 1.825
-7.540 -8.777 1.251
-7.162 -9.112 1.960
-7.540 -8.776 1.250
-7.540 -8.780 1.255
-7.989 -9.857 1.879
-7.182 -9.115 1.943
-7.162 -9.112 1.960
-8.062 -9.876 1.825
-7.674 -8.096 0.434
-7.182 -9.115 1.943
-7.540 -8.775 1.249
-7.128 -9.026 1.910
-7.674 -8.096 0.434
-7.674 -8.096 0.434
-7.162 -9.112 1.960
-7.540 -8.776 1.250
-7.162 -9.112 1.960
-7.182 -9.115 1.943
-7.182 -9.115 1.943
-7.162 -9.112 1.960
-7.499 -8.059 0.571
-7.540 -8.774 1.248
-7.182 -9.115 1.943
-7.182 -9.115 1.943
-7.540 -8.774 1.248
-6.472 -8.960 2.495
-7.540 -8.775 1.249
-7.162 -9.112 1.959
-7.540 -8.775 1.249
-7.540 -8.777 1.251
-7.162 -9.112 1.959
-8.062 -9.876 1.825
-8.062 -9.876 1.825
-7.182 -9.115 1.943
-7.968 -9.960 2.011
-7.499 -8.059 0.570
-7.128 -9.026 1.910
-7.674 -8.096 0.434
-7.499 -8.058 0.570
-7.183 -9.115 1.942
-8.061 -9.876 1.826
-7.183 -9.115 1.942
-7.499 -8.059 0.571
-7.183 -9.115 1.942
-7.255 -9.120 1.875
-7.540 -8.776 1.250
-7.540 -8.774 1.248
-7.182 -9.115 1.943
-7.182 -9.115 1.943
-7.182 -9.115 1.943
-7.182 -9.115 1.943
-7.162 -9.112 1.960
-7.182 -9.115 1.943
-7.540 -8.775 1.249
-7.540 -8.775 1.249
-7.540 -8.773 1.247
-7.182 -9.115 1.943
-7.540 -8.779 1.253
-7.182 -9.115 1.943
-7.255 -9.120 1.875
-7.162 -9.112 1.960
-7.162 -9.112 1.960
-8.062 -9.876 1.825
-7.968 -9.960 2.010
-6.472 -8.960 2.495
-7.540 -8.774 1.248
-7.540 -8.784 1.259
-8.203 -9.919 1.727
-7.182 -9.115 1.943
-7.540 -8.783 1.257
-7.499 -8.059 0.571
-7.540 -8.774 1.248
-7.540 -8.774 1.248
-7.129 -9.110 1.991
-7.180 -9.115 1.945
-7.987 -9.856 1.880
-7.269 -9.122 1.863
-7.539 -8.791 1.266
-7.161 -9.112 1.961
-7.539 -8.776 1.251
-7.539 -8.773 1.248
-7.253 -9.120 1.877
-7.539 -8.774 1.250
-7.987 -9.857 1.880
-8.061 -9.876 1.826
-7.987 -9.856 1.880
-7.180 -9.115 1.945
-7.253 -9.120 1.877
-7.253 -9.120 1.877
-7.253 -9.120 1.877
-7.538 -8.776 1.251
-7.538 -8.774 1.249
-8.202 -9.918 1.728
-7.987 -9.857 1.880
-8.203 -9.919 1.727
-7.539 -8.789 1.264
-7.160 -9.112 1.961
-7.160 -9.112 1.961
-8.061 -9.876 1.826
-7.253 -9.120 1.877
-8.061 -9.876 1.826
-7.253 -9.120 1.877
-7.180 -9.115 1.945
-7.538 -8.773 1.248
-7.160 -9.112 1.961
-7.253 -9.120 1.877
-7.253 -9.120 1.877
-7.253 -9.120 1.877
-8.202 -9.919 1.728
-7.253 -9.120 1.877
-7.539 -8.775 1.251
-7.269 -9.122 1.864
-7.253 -9.120 1.877
-7.131 -9.296 2.175
-8.202 -9.919 1.728
-7.251 -9.120 1.879
-7.538 -8.781 1.257
-7.538 -8.774 1.250
-7.538 -8.773 1.249
-7.672 -8.096 0.436
-8.201 -9.919 1.729
-7.251 -9.120 1.880
-8.201 -9.919 1.729
-8.201 -9.919 1.729
-7.251 -9.120 1.880
-7.539 -8.773 1.249
-8.202 -9.919 1.728
-8.202 -9.919 1.728
-7.158 -9.113 1.964
-7.251 -9.120 1.879
-8.129 -9.900 1.782
-7.987 -9.856 1.880
-7.178 -9.115 1.947
-7.251 -9.120 1.879
-8.202 -9.919 1.728
-7.538 -8.783 1.259
-7.251 -9.120 1.879
-8.202 -9.919 1.728
-8.202 -9.919 1.728
-7.251 -9.120 1.879
-8.202 -9.919 1.728
-8.202 -9.919 1.728
-8.202 -9.919 1.728
-8.060 -9.876 1.827
-8.202 -9.919 1.728
-8.202 -9.919 1.728
-7.251 -9.120 1.879
-7.251 -9.120 1.879
-7.251 -9.120 1.879
-8.202 -9.919 1.728
-7.539 -8.774 1.249
-7.251 -9.120 1.879
-7.539 -8.775 1.251
-7.251 -9.120 1.879
-8.202 -9.919 1.728
-8.202 -9.919 1.728
-8.060 -9.876 1.826
-7.251 -9.120 1.879
-8.202 -9.919 1.728
-7.178 -9.115 1.947
-8.202 -9.919 1.728
-7.267 -9.122 1.866
-8.202 -9.919 1.728
-7.538 -8.763 1.238
-7.251 -9.120 1.879
-8.202 -9.919 1.728
-8.202 -9.919 1.728
-8.202 -9.919 1.728
-7.609 -8.095 0.497
-8.177 -9.914 1.748
-8.177 -9.915 1.749
-8.177 -9.915 1.749
-8.177 -9.914 1.748
-8.177 -9.914 1.748
-7.464 -9.431 1.978
-7.464 -9.431 1.978
-8.172 -9.914 1.754
-7.606 -8.103 0.509
-8.172 -9.914 1.754
-8.172 -9.914 1.754
-8.956 -10.342 1.397
-8.169 -9.914 1.757
-7.246 -9.121 1.885
-7.246 -9.121 1.885
-8.169 -9.914 1.757
-8.169 -9.914 1.757
-7.246 -9.121 1.885
-8.169 -9.914 1.757
-8.169 -9.914 1.757
-7.211 -9.137 1.937
-8.169 -9.914 1.757
-7.244 -9.121 1.887
-7.122 -9.287 2.176
-8.169 -9.914 1.757
-8.169 -9.914 1.757
-7.244 -9.121 1.887
-8.169 -9.914 1.757
-8.169 -9.914 1.757
-7.244 -9.121 1.887
-8.169 -9.914 1.757
-8.169 -9.914 1.757
-7.715 -9.478 1.774
-7.259 -9.123 1.874
-8.169 -9.914 1.757
-7.216 -9.119 1.913
-7.244 -9.121 1.887
-8.169 -9.914 1.757
-7.244 -9.121 1.887
-7.259 -9.123 1.874
-7.259 -9.123 1.874
-7.259 -9.123 1.874
-7.932 -9.943 2.030
-8.174 -9.914 1.752
-7.245 -9.121 1.886
-8.173 -9.914 1.753
-8.173 -9.914 1.753
-7.245 -9.121 1.886
-7.245 -9.121 1.886
-8.173 -9.914 1.753
-7.245 -9.121 1.886
-8.033 -9.871 1.849
-8.175 -9.915 1.751
-8.101 -9.895 1.805
-7.246 -9.121 1.885
-7.246 -9.121 1.885
-7.246 -9.121 1.885
-7.246 -9.121 1.885
-7.261 -9.123 1.872
-7.246 -9.121 1.885
-7.261 -9.123 1.872
-8.175 -9.915 1.751
-8.175 -9.915 1.751
-8.175 -9.915 1.751
-8.175 -9.915 1.751
-7.246 -9.121 1.885
-7.246 -9.121 1.885
-7.124 -9.287 2.174
-7.937 -9.964 2.045
-7.246 -9.121 1.885
-8.176 -9.915 1.750
-7.262 -9.123 1.872
-7.246 -9.121 1.885
-7.246 -9.121 1.885
-8.176 -9.915 1.750
-7.262 -9.123 1.872
-8.176 -9.915 1.750
-16.269 -10.775 -5.478
-16.269 -10.775 -5.478
-22.875 -14.116 -8.745
-22.875 -14.116 -8.745
-22.875 -14.116 -8.745
-22.875 -14.116 -8.745
-22.875 -14.116 -8.745
-22.875 -14.116 -8.745
-22.875 -14.116 -8.745
-22.875 -14.116 -8.745
-22.875 -14.116 -8.745
-16.266 -10.776 -5.474
-16.266 -10.776 -5.474
-22.875 -14.116 -8.745
-16.266 -10.776 -5.474
-22.875 -14.116 -8.745
-22.875 -14.116 -8.745
-22.875 -14.116 -8.745
-16.057 -13.440 -8.814
-16.267 -10.776 -5.474
-16.267 -10.776 -5.474
-22.875 -14.116 -8.745
-22.875 -14.116 -8.745
-16.266 -10.776 -5.474
-16.266 -10.776 -5.474
-16.266 -10.776 -5.474
-22.875 -14.116 -8.745
-16.266 -10.776 -5.474
-16.266 -10.776 -5.474
-16.266 -10.776 -5.474
-22.875 -14.116 -8.745
-22.875 -14.116 -8.745
-16.266 -10.776 -5.474
-16.266 -10.776 -5.474
-16.266 -10.776 -5.474
-16.266 -10.776 -5.474
-22.875 -14.116 -8.745
-16.266 -10.776 -5.474
-16.266 -10.776 -5.474
-16.266 -10.776 -5.474
-16.266 -10.776 -5.474
-16.266 -10.776 -5.474
-16.266 -10.776 -5.474
-16.266 -10.776 -5.474
-16.199 -10.781 -5.402
-16.285 -10.775 -5.494
-16.285 -10.775 -5.494
-16.199 -10.781 -5.402
-16.285 -10.775 -5.494
-16.285 -10.775 -5.494
-16.199 -10.781 -5.402
-16.285 -10.775 -5.494
-16.285 -10.775 -5.494
-16.285 -10.775 -5.494
-16.285 -10.775 -5.494
-16.285 -10.775 -5.494
-16.285 -10.775 -5.494
-16.285 -10.775 -5.494
-16.199 -10.781 -5.402
-16.285 -10.775 -5.494
-16.285 -10.775 -5.494
-10.280 -14.874 4.601
-16.199 -10.781 -5.402
-16.285 -10.775 -5.494
-16.285 -10.775 -5.494
-16.285 -10.775 -5.494
-16.285 -10.775 -5.494
-16.285 -10.775 -5.494
-16.285 -10.775 -5.494
-16.285 -10.775 -5.494
-16.285 -10.775 -5.494
-16.285 -10.775 -5.494
-16.285 -10.775 -5.494
-16.285 -10.775 -5.494
-16.285 -10.775 -5.494
-16.285 -10.775 -5.494
-16.199 -10.781 -5.402
-16.285 -10.775 -5.494
-16.285 -10.775 -5.494
-16.285 -10.775 -5.494
-16.285 -10.775 -5.494
-16.199 -10.781 -5.402
-16.285 -10.775 -5.494
-16.285 -10.775 -5.494
-16.285 -10.775 -5.494
-16.199 -10.781 -5.402
-16.199 -10.781 -5.402
-16.199 -10.781 -5.402
-16.285 -10.775 -5.494
-16.285 -10.775 -5.494
-16.285 -10.775 -5.494
-16.199 -10.781 -5.402
-16.285 -10.775 -5.494
-16.285 -10.775 -5.494
-16.285 -10.775 -5.494
-16.285 -10.775 -5.494
-16.199 -10.781 -5.402
-16.285 -10.775 -5.494
-16.285 -10.775 -5.494
-16.285 -10.775 -5.494
-16.285 -10.775 -5.494
-16.285 -10.775 -5.494
-16.199 -10.781 -5.402
-16.199 -10.781 -5.402
-16.285 -10.775 -5.494
-16.199 -10.781 -5.402
-16.285 -10.775 -5.494
-17.441 -10.620 -6.806
-16.442 -10.767 -5.659
-16.442 -10.767 -5.659
-16.355 -10.773 -5.567
-16.355 -10.773 -5.567
-16.355 -10.773 -5.567
-16.442 -10.767 -5.659
-16.442 -10.767 -5.659
-6.477 -11.986 5.525
-10.379 -14.871 4.500
-16.365 -10.771 -5.578
-16.451 -10.765 -5.670
-5.426 -10.540 5.118
-5.813 -10.517 4.705
-16.451 -10.765 -5.669
-16.364 -10.771 -5.577
-10.377 -14.871 4.502
-16.450 -10.765 -5.669
-16.723 -10.728 -5.978
-9.633 -10.085 -5.765
-9.633 -10.085 -5.765
-16.361 -10.771 -5.574
-5.813 -10.517 4.705
-5.429 -10.540 5.115
-16.361 -10.771 -5.574
-10.312 -14.869 4.564
-5.429 -10.540 5.115
-16.361 -10.771 -5.574
-16.447 -10.766 -5.666
-16.670 -10.765 -5.889
-16.362 -10.771 -5.576
-5.426 -10.540 5.118
-9.920 -10.051 -6.085
-16.471 -10.735 -5.720
-16.447 -10.766 -5.666
-9.546 -10.090 -5.673
-5.426 -10.540 5.118
-16.723 -10.728 -5.978
-16.670 -10.765 -5.889
-16.362 -10.771 -5.576
-5.814 -10.516 4.702
-16.362 -10.771 -5.576
-16.670 -10.765 -5.889
-16.670 -10.765 -5.889
-5.222 -10.471 5.254
-7.715 -12.000 4.304
-5.429 -10.540 5.115
-16.670 -10.765 -5.890
-16.362 -10.771 -5.576
-16.362 -10.771 -5.576
-5.814 -10.516 4.702
-10.675 -14.867 4.199
-16.448 -10.765 -5.667
-16.670 -10.765 -5.889
-16.449 -10.765 -5.667
-16.449 -10.765 -5.668
-16.670 -10.765 -5.889
-16.724 -10.728 -5.980
-6.795 -10.531 3.736
-5.223 -10.473 5.254
-16.723 -10.728 -5.978
-16.723 -10.728 -5.978
-16.215 -10.781 -5.418
-16.215 -10.781 -5.418
-16.215 -10.781 -5.418
-17.378 -10.625 -6.737
-16.652 -10.736 -5.900
-5.804 -10.524 4.721
-16.662 -10.735 -5.911
-5.428 -10.539 5.115
-10.305 -14.858 4.561
-16.670 -10.733 -5.921
-16.396 -10.770 -5.610
-16.309 -10.776 -5.518
-16.618 -10.769 -5.834
-16.311 -10.775 -5.520
-7.590 -11.981 4.410
-5.431 -10.540 5.113
-16.670 -10.733 -5.921
-16.309 -10.776 -5.518
-6.797 -10.529 3.731
-10.668 -14.856 4.194
-16.671 -10.733 -5.922
-16.671 -10.733 -5.922
-16.397 -10.770 -5.611
-16.671 -10.733 -5.922
-16.671 -10.733 -5.922
-16.397 -10.770 -5.611
-16.397 -10.770 -5.611
-16.310 -10.775 -5.519
-5.223 -10.471 5.252
-16.671 -10.733 -5.922
-7.590 -11.981 4.410
-10.305 -14.858 4.560
-10.305 -14.858 4.560
-10.305 -14.858 4.560
-5.226 -10.471 5.250
-16.396 -10.770 -5.611
-16.396 -10.770 -5.611
-10.305 -14.858 4.560
-5.226 -10.471 5.250
-5.226 -10.471 5.250
-5.760 -10.513 4.756
-16.397 -10.770 -5.611
-16.618 -10.769 -5.834
-16.618 -10.769 -5.834
-16.311 -10.775 -5.520
-16.311 -10.775 -5.520
-16.311 -10.775 -5.520
-6.797 -10.529 3.731
-16.309 -10.776 -5.518
-6.797 -10.529 3.731
-5.815 -10.515 4.701
-5.815 -10.515 4.701
-16.670 -10.733 -5.921
-5.055 -10.425 5.374
-5.055 -10.425 5.374
-5.055 -10.425 5.374
-16.309 -10.776 -5.518
-16.309 -10.776 -5.518
-10.668 -14.856 4.194
-16.310 -10.775 -5.519
-16.310 -10.775 -5.519
-6.797 -10.529 3.731
-16.618 -10.769 -5.834
-4.879 -10.503 5.629
-5.224 -10.471 5.251
-16.311 -10.775 -5.520
-4.769 -10.481 5.716
-16.672 -10.733 -5.922
-6.715 -10.521 3.808
-10.668 -14.856 4.194
-10.668 -14.856 4.194
-16.619 -10.769 -5.834
-16.311 -10.775 -5.520
-16.671 -10.733 -5.922
-10.668 -14.856 4.194
-16.618 -10.769 -5.834
-6.797 -10.529 3.731
-4.880 -10.504 5.629
-4.880 -10.504 5.629
-16.619 -10.769 -5.834
-5.056 -10.424 5.372
-5.056 -10.424 5.372
-5.056 -10.424 5.372
-16.671 -10.733 -5.922
-16.311 -10.775 -5.520
-4.769 -10.481 5.716
-5.224 -10.471 5.251
-16.671 -10.733 -5.922
-5.816 -10.514 4.698
-16.311 -10.775 -5.520
-6.714 -10.521 3.809
-6.797 -10.529 3.731
-4.771 -10.482 5.716
-16.670 -10.733 -5.921
-5.815 -10.515 4.701
-5.225 -10.472 5.251
-10.305 -14.858 4.561
-5.057 -10.425 5.372
-5.225 -10.472 5.252
-5.057 -10.425 5.372
-4.771 -10.482 5.716
-7.589 -11.982 4.411
-5.431 -10.540 5.113
-16.309 -10.776 -5.518
-6.714 -10.521 3.809
-16.396 -10.770 -5.610
-6.714 -10.521 3.809
-4.880 -10.504 5.629
-16.309 -10.776 -5.518
-16.396 -10.770 -5.610
-16.618 -10.769 -5.834
-16.671 -10.733 -5.922
-5.056 -10.424 5.372
-5.056 -10.424 5.372
-16.671 -10.733 -5.922
-16.671 -10.733 -5.922
-5.365 -10.537 5.177
-5.365 -10.537 5.177
-16.309 -10.776 -5.518
-5.365 -10.537 5.177
-5.759 -10.514 4.758
-16.670 -10.733 -5.921
-16.309 -10.776 -5.518
-5.759 -10.514 4.758
-4.163 -8.623 4.465
-16.618 -10.769 -5.833
-16.311 -10.775 -5.520
-5.365 -10.537 5.177
-16.309 -10.776 -5.518
-16.396 -10.770 -5.610
-16.309 -10.776 -5.518
-16.309 -10.776 -5.518
-16.670 -10.733 -5.921
-9.863 -10.056 -6.023
-6.797 -10.529 3.731
-6.797 -10.529 3.731
-16.618 -10.769 -5.834
-16.671 -10.733 -5.922
-4.326 -8.542 4.223
-5.428 -10.539 5.115
-5.222 -10.472 5.254
-16.395 -10.770 -5.609
-16.395 -10.770 -5.609
-16.309 -10.776 -5.518
-16.309 -10.776 -5.518
-16.309 -10.776 -5.518
-4.768 -10.482 5.719
-4.768 -10.482 5.719
-4.325 -8.543 4.224
-4.877 -10.504 5.631
-5.055 -10.425 5.374
-16.670 -10.733 -5.920
-5.222 -10.472 5.254
-5.222 -10.472 5.254
-16.309 -10.776 -5.518
-5.222 -10.472 5.254
-5.222 -10.472 5.254
-16.395 -10.770 -5.609
-4.406 -8.644 4.246
-5.222 -10.472 5.254
-5.815 -10.515 4.701
-8.382 -12.005 3.641
-16.310 -10.775 -5.519
-4.326 -8.542 4.223
-6.797 -10.529 3.731
-6.797 -10.529 3.731
-6.797 -10.529 3.731
-6.797 -10.529 3.731
-16.618 -10.769 -5.833
-16.618 -10.769 -5.833
-10.305 -14.858 4.560
-6.797 -10.529 3.731
-4.771 -10.482 5.716
-4.771 -10.482 5.716
-16.670 -10.733 -5.921
-16.670 -10.733 -5.921
-16.670 -10.733 -5.921
-4.768 -10.482 5.719
-16.309 -10.776 -5.518
-16.396 -10.770 -5.610
-16.618 -10.769 -5.834
-16.618 -10.769 -5.834
-16.618 -10.769 -5.834
-4.163 -8.622 4.465
-16.671 -10.733 -5.922
-4.163 -8.622 4.465
-16.671 -10.733 -5.922
-7.590 -11.981 4.410
-4.881 -10.503 5.626
-4.881 -10.503 5.626
-5.226 -10.471 5.249
-4.407 -8.644 4.245
-16.311 -10.775 -5.520
-4.406 -8.644 4.245
-16.396 -10.770 -5.610
-5.056 -10.424 5.372
-5.056 -10.424 5.372
-5.224 -10.471 5.251
-5.056 -10.424 5.372
-6.797 -10.529 3.731
-5.225 -10.472 5.251
-6.797 -10.529 3.731
-6.797 -10.529 3.731
-16.670 -10.733 -5.921
-5.055 -10.425 5.374
-4.877 -10.504 5.631
-16.396 -10.770 -5.610
-16.309 -10.776 -5.518
-5.759 -10.514 4.758
-5.759 -10.514 4.758
-17.396 -10.623 -6.759
-16.670 -10.733 -5.921
-16.619 -10.769 -5.834
-4.879 -10.503 5.629
-5.428 -10.539 5.115
-16.670 -10.733 -5.921
-16.670 -10.733 -5.921
-4.768 -10.482 5.719
-4.768 -10.482 5.719
-16.619 -10.769 -5.834
-5.365 -10.537 5.177
-16.309 -10.776 -5.518
-5.759 -10.514 4.758
-5.225 -10.472 5.252
-4.238 -8.744 4.514
-4.407 -8.645 4.245
-4.880 -10.505 5.629
-4.238 -8.745 4.514
-5.815 -10.515 4.701
-5.225 -10.472 5.252
-16.670 -10.733 -5.920
-16.670 -10.733 -5.920
-6.714 -10.521 3.809
-6.797 -10.529 3.731
-9.863 -10.056 -6.023
-4.768 -10.482 5.719
-6.715 -10.521 3.808
-4.406 -8.645 4.246
-5.225 -10.472 5.252
-4.406 -8.645 4.246
-4.406 -8.645 4.246
-5.225 -10.472 5.252
-5.058 -10.426 5.372
-5.058 -10.426 5.372
-5.225 -10.472 5.252
-5.225 -10.472 5.252
-4.771 -10.482 5.716
-5.782 -10.530 4.748
-6.693 -10.525 3.834
-5.219 -10.471 5.256
-5.219 -10.471 5.256
-16.156 -10.784 -5.356
-16.597 -10.735 -5.846
-4.765 -10.480 5.720
-5.220 -10.471 5.255
-5.220 -10.471 5.255
-16.344 -10.772 -5.556
-16.344 -10.772 -5.556
-16.344 -10.772 -5.556
-16.344 -10.772 -5.556
-16.258 -10.778 -5.465
-5.804 -10.518 4.715
-10.290 -14.861 4.578
-10.627 -9.959 -6.888
-5.054 -10.425 5.375
-5.222 -10.472 5.254
-4.877 -10.504 5.631
-16.670 -10.733 -5.921
-16.670 -10.733 -5.921
-16.309 -10.776 -5.518
-7.589 -11.982 4.411
-5.224 -10.472 5.252
-4.771 -10.482 5.716
-4.771 -10.482 5.716
-5.058 -10.425 5.372
-5.058 -10.426 5.372
-4.406 -8.645 4.246
-4.880 -10.504 5.629
-16.670 -10.733 -5.921
-5.055 -10.425 5.374
-5.055 -10.425 5.374
-16.395 -10.770 -5.609
-4.768 -10.482 5.719
-4.768 -10.482 5.719
-16.309 -10.776 -5.518
-16.309 -10.776 -5.518
-16.309 -10.776 -5.518
-16.309 -10.776 -5.518
-5.055 -10.425 5.374
-5.222 -10.472 5.254
-5.222 -10.472 5.254
-5.055 -10.425 5.374
-5.222 -10.472 5.254
-5.222 -10.472 5.254
-5.222 -10.472 5.254
-5.055 -10.425 5.374
-4.768 -10.482 5.719
-5.222 -10.472 5.254
-4.405 -8.645 4.247
-5.222 -10.472 5.254
-5.055 -10.425 5.374
-4.768 -10.482 5.719
-16.395 -10.770 -5.610
-16.618 -10.769 -5.833
-16.397 -10.770 -5.611
-5.224 -10.471 5.251
-16.310 -10.775 -5.519
-16.310 -10.775 -5.519
-16.310 -10.775 -5.519
-16.310 -10.775 -5.519
-5.428 -10.539 5.115
-9.578 -10.090 -5.705
-5.222 -10.472 5.254
-16.618 -10.769 -5.833
-5.223 -10.471 5.251
-5.056 -10.424 5.372
-5.223 -10.471 5.251
-4.879 -10.503 5.629
-5.224 -10.471 5.251
-4.879 -10.503 5.629
-5.224 -10.471 5.251
-5.056 -10.424 5.372
-16.310 -10.775 -5.519
-5.761 -10.513 4.755
-16.671 -10.733 -5.922
-16.310 -10.775 -5.519
-5.056 -10.424 5.372
-16.396 -10.770 -5.610
-16.618 -10.769 -5.833
-5.224 -10.471 5.251
-5.056 -10.424 5.372
-5.056 -10.424 5.372
-5.056 -10.424 5.372
-5.056 -10.424 5.372
-16.310 -10.775 -5.519
-16.310 -10.775 -5.519
-16.310 -10.775 -5.519
-4.406 -8.644 4.245
-4.879 -10.503 5.629
-4.879 -10.503 5.629
-16.310 -10.775 -5.519
-16.310 -10.775 -5.519
-16.671 -10.733 -5.922
-10.668 -14.856 4.194
-16.310 -10.775 -5.519
-5.223 -10.471 5.252
-5.056 -10.424 5.372
-5.223 -10.471 5.252
-5.223 -10.471 5.252
-5.056 -10.424 5.372
-4.769 -10.481 5.717
-5.223 -10.471 5.252
-5.223 -10.471 5.252
-16.832 -10.625 -6.191
-16.155 -10.721 -5.418
-5.048 -6.519 1.477
-16.158 -10.721 -5.420
-16.158 -10.721 -5.420
-16.158 -10.721 -5.420
-16.158 -10.721 -5.420
-16.892 -10.619 -6.257
-5.048 -6.519 1.477
-5.048 -6.519 1.477
-4.998 -6.530 1.539
-4.484 -4.995 0.519
-4.416 -6.206 1.800
-16.904 -10.618 -6.270
-5.036 -6.541 1.510
-4.998 -6.530 1.539
-5.036 -6.541 1.510
-16.405 -10.717 -5.672
-9.367 -10.037 -5.544
-8.224 -12.008 3.803
-5.049 -6.519 1.477
-5.049 -6.513 1.471
-6.528 -8.055 1.536
-6.528 -8.055 1.537
-16.409 -10.717 -5.675
-16.410 -10.720 -5.674
-16.171 -10.720 -5.435
-16.171 -10.720 -5.435
-6.528 -8.055 1.537
-6.528 -8.055 1.536
-3.784 -7.304 3.528
-5.036 -6.541 1.510
-4.948 -6.413 1.472
-4.998 -6.531 1.540
-4.998 -6.530 1.539
-16.409 -10.717 -5.675
-16.409 -10.717 -5.675
-4.416 -6.206 1.800
-16.172 -10.720 -5.435
-16.906 -10.618 -6.273
-16.407 -10.717 -5.673
-6.528 -8.055 1.536
-5.035 -6.541 1.511
-5.035 -6.541 1.511
-16.405 -10.717 -5.672
-4.753 -8.666 3.921
-4.945 -6.403 1.463
-5.036 -6.541 1.510
-6.528 -8.055 1.537
-4.998 -6.530 1.539
-16.168 -10.720 -5.431
-4.997 -6.530 1.540
-10.652 -14.873 4.228
-6.528 -8.055 1.537
-8.224 -12.008 3.803
-6.219 -6.555 0.342
-16.168 -10.720 -5.431
-16.168 -10.720 -5.431
-9.367 -10.037 -5.544
-6.527 -8.055 1.537
-16.406 -10.717 -5.673
-6.524 -8.028 1.512
-5.035 -6.541 1.511
-4.998 -6.530 1.539
-4.423 -6.237 1.825
-4.997 -6.530 1.540
-4.997 -6.530 1.540
-9.367 -10.037 -5.544
-5.049 -6.519 1.477
-4.423 -6.237 1.825
-10.653 -14.873 4.227
-4.998 -6.530 1.539
-8.225 -12.008 3.802
-4.423 -6.237 1.825
-16.409 -10.717 -5.675
-16.409 -10.717 -5.675
-16.409 -10.717 -5.675
-16.171 -10.720 -5.435
-16.171 -10.720 -5.435
-4.740 -6.562 1.838
-4.991 -6.531 1.547
-4.671 -8.550 3.887
-16.171 -10.720 -5.435
-4.431 -6.254 1.834
-6.274 -7.554 1.278
-4.423 -6.237 1.825
-5.029 -6.542 1.518
-5.089 -6.532 1.448
-5.029 -6.542 1.518
-4.997 -6.530 1.540
-16.409 -10.717 -5.675
-4.829 -6.229 1.406
-4.998 -6.533 1.543
-8.301 -11.876 3.589
-4.988 -6.528 1.545
-4.997 -6.530 1.540
-5.035 -6.541 1.511
-6.528 -8.056 1.537
-6.527 -8.051 1.534
-6.528 -8.055 1.536
-8.301 -11.858 3.571
-16.409 -10.718 -5.675
-5.036 -6.541 1.510
-5.029 -6.541 1.517
-4.992 -6.531 1.547
-4.997 -6.530 1.540
-4.992 -6.531 1.547
-4.991 -6.535 1.550
-5.029 -6.541 1.517
-16.409 -10.717 -5.675
-5.029 -6.542 1.518
-6.527 -8.055 1.537
-6.210 -7.394 1.184
-6.251 -7.448 1.202
-6.528 -8.055 1.536
-4.997 -6.530 1.540
-4.992 -6.531 1.547
-6.527 -8.055 1.537
-5.122 -5.668 0.552
-4.997 -6.530 1.540
-5.036 -6.541 1.510
-6.528 -8.052 1.534
-10.653 -14.873 4.227
-10.653 -14.873 4.227
-6.528 -8.055 1.537
-6.528 -8.055 1.537
-4.426 -6.239 1.823
-5.036 -6.541 1.510
-16.409 -10.717 -5.675
-16.172 -10.720 -5.435
-16.410 -10.717 -5.676
-16.410 -10.717 -5.676
-16.410 -10.717 -5.676
-4.423 -6.238 1.825
-6.528 -8.055 1.536
-4.979 -6.473 1.499
-5.027 -6.524 1.501
-16.410 -10.717 -5.676
-4.426 -6.238 1.823
-8.559 -12.084 3.538
-6.528 -8.055 1.536
-4.997 -6.533 1.543
-8.702 -12.145 3.455
-5.204 -10.404 5.203
-6.528 -8.055 1.536
-4.422 -6.231 1.820
-4.995 -6.533 1.544
-4.986 -6.556 1.577
-16.804 -10.616 -6.172
-16.145 -10.723 -5.406
-4.987 -6.542 1.562
-5.033 -6.545 1.517
-16.386 -10.720 -5.650
-7.104 -9.107 2.012
-6.509 -8.014 1.512
-4.180 -5.627 1.460
-9.589 -10.039 -5.765
-4.421 -6.231 1.821
-10.634 -14.874 4.247
-8.189 -12.011 3.840
-4.995 -6.533 1.544
-16.386 -10.720 -5.649
-5.075 -6.542 1.474
-4.419 -6.236 1.828
-4.995 -6.530 1.541
-4.995 -6.530 1.541
-5.033 -6.541 1.512
-4.995 -6.530 1.541
-4.422 -6.238 1.827
-5.033 -6.541 1.512
-4.995 -6.529 1.542
-10.634 -14.874 4.247
-16.383 -10.721 -5.646
-16.383 -10.721 -5.646
-16.383 -10.721 -5.646
-16.383 -10.721 -5.646
-4.737 -8.678 3.950
-7.104 -9.107 2.012
-16.383 -10.721 -5.645
-4.995 -6.530 1.541
-4.995 -6.530 1.541
-5.710 -5.705 0.002
-8.189 -12.011 3.840
-16.383 -10.721 -5.645
-4.995 -6.529 1.542
-5.033 -6.540 1.513
-4.995 -6.530 1.541
-4.995 -6.530 1.541
-4.419 -6.234 1.826
-16.383 -10.721 -5.645
-5.033 -6.540 1.513
-4.419 -6.236 1.828
-4.995 -6.530 1.541
-5.033 -6.541 1.512
-4.419 -6.236 1.828
-16.383 -10.721 -5.646
-4.422 -6.238 1.827
-5.033 -6.541 1.512
-8.805 -12.239 3.447
-4.179 -5.625 1.458
-4.432 -6.245 1.824
-6.257 -7.472 1.221
-16.383 -10.721 -5.645
-6.527 -8.055 1.537
-6.528 -8.055 1.536
-4.432 -6.245 1.824
-6.430 -7.870 1.433
-5.033 -6.540 1.512
-4.995 -6.530 1.541
-4.995 -6.529 1.541
-6.528 -8.055 1.536
-6.528 -8.055 1.536
-6.527 -8.055 1.537
-5.110 -6.551 1.446
-5.028 -6.541 1.518
-16.383 -10.721 -5.646
-6.528 -8.056 1.538
-6.528 -8.055 1.536
-6.325 -7.661 1.331
-4.995 -6.530 1.541
-16.383 -10.721 -5.646
-4.995 -6.530 1.541
-4.422 -6.238 1.827
-4.422 -6.238 1.827
-4.422 -6.238 1.827
-6.528 -8.055 1.536
-6.528 -8.056 1.537
-4.987 -6.510 1.528
-4.995 -6.530 1.542
-4.995 -6.530 1.541
-4.995 -6.530 1.541
-5.033 -6.541 1.513
-8.085 -9.891 1.818
-7.596 -8.373 0.792
-4.736 -5.564 0.835
-16.383 -10.721 -5.645
-6.528 -8.055 1.536
-16.383 -10.721 -5.645
-4.420 -6.237 1.828
-6.528 -8.056 1.537
-6.528 -8.055 1.536
-5.033 -6.540 1.513
-5.425 -9.730 4.309
-3.791 -8.216 4.439
-4.415 -8.478 4.070
-6.528 -8.055 1.536
-4.995 -6.530 1.541
-6.528 -8.055 1.536
-7.104 -9.107 2.012
-6.528 -8.055 1.536
-6.327 -7.738 1.412
-4.432 -6.245 1.824
-4.995 -6.530 1.541
-4.995 -6.530 1.541
-4.415 -8.478 4.070
-6.528 -8.055 1.536
-6.264 -7.536 1.283
-6.528 -8.055 1.536
-4.994 -6.529 1.541
-4.995 -6.530 1.542
-8.831 -10.321 1.505
-4.995 -6.531 1.543
-5.081 -6.530 1.456
-6.526 -8.058 1.543
-4.423 -6.238 1.826
-5.034 -6.541 1.512
-8.802 -12.272 3.482
-6.528 -8.055 1.536
-6.265 -7.520 1.263
-6.528 -8.055 1.536
-6.501 -7.989 1.493
-16.382 -10.721 -5.645
-16.382 -10.721 -5.645
-4.996 -6.531 1.542
-4.996 -6.530 1.541
-6.294 -6.454 0.164
-4.991 -6.531 1.547
-5.034 -6.541 1.512
-4.996 -6.530 1.541
-6.528 -8.055 1.536
-4.182 -5.626 1.455
-4.182 -5.625 1.455
-5.034 -6.541 1.512
-6.302 -7.683 1.394
-4.423 -6.237 1.825
-5.034 -6.541 1.512
-8.176 -12.012 3.854
-4.976 -6.484 1.513
-10.634 -14.874 4.247
-5.034 -6.541 1.512
-4.423 -6.238 1.826
-6.528 -8.055 1.536
-5.034 -6.541 1.512
-4.500 -8.576 4.084
-5.034 -6.541 1.512
-3.671 -7.197 3.540
-3.671 -7.197 3.540
-4.996 -6.529 1.539
-4.996 -6.530 1.541
-4.995 -6.529 1.540
-4.994 -6.533 1.546
-7.862 -9.828 1.977
-4.996 -6.530 1.541
-4.431 -6.245 1.824
-4.996 -6.530 1.541
-4.990 -6.531 1.547
-8.346 -11.925 3.593
-4.433 -6.245 1.822
-5.034 -6.541 1.511
-4.711 -6.426 1.725
-4.990 -6.531 1.548
-5.028 -6.542 1.518
-4.496 -6.247 1.762
-6.525 -8.048 1.532
-4.996 -6.529 1.540
-5.034 -6.541 1.511
-8.189 -12.011 3.840
-4.421 -6.238 1.827
-4.420 -6.237 1.828
-6.528 -8.055 1.536
-3.796 -7.273 3.484
-16.382 -10.721 -5.645
-4.759 -6.425 1.676
-4.734 -8.677 3.951
-6.528 -8.049 1.529
-6.277 -6.447 0.172
-6.528 -8.055 1.536
-6.528 -8.055 1.536
-4.996 -6.530 1.541
-5.028 -6.542 1.519
-6.528 -8.055 1.536
-4.739 -6.562 1.839
-5.076 -6.539 1.470
-6.321 -7.698 1.378
-6.247 -7.437 1.196
-8.946 -10.337 1.406
-4.996 -6.530 1.541
-8.559 -12.065 3.518
-5.034 -6.541 1.511