-9.467 -2.676 -6.946
-5.831 -7.320 1.496
-8.365 -7.951 -0.427
-8.471 -8.017 -0.466
-6.351 -8.488 2.137
-6.203 -8.866 2.668
-8.827 -4.488 -4.376
-8.479 -8.014 -0.476
-8.401 -7.939 -0.475
-5.494 -7.451 1.935
-8.590 -8.102 -0.500
-11.008 -5.211 -5.829
-8.590 -8.102 -0.500
-8.406 -7.936 -0.482
-8.406 -7.936 -0.482
-7.528 -8.375 0.829
-9.474 -2.671 -6.958
-11.008 -5.211 -5.828
-5.230 -7.655 2.408
-8.590 -8.102 -0.500
-8.830 -4.485 -4.381
-8.803 -5.540 -3.283
-10.889 -5.238 -5.682
-8.590 -8.102 -0.500
-7.528 -8.375 0.829
-5.230 -7.655 2.408
-8.830 -4.485 -4.381
-8.483 -8.012 -0.482
-9.638 -4.264 -5.415
-8.484 -8.012 -0.484
-10.717 -5.291 -5.455
-9.476 -2.670 -6.963
-8.484 -8.012 -0.484
-9.476 -2.670 -6.963
-8.407 -7.936 -0.484
-8.591 -8.101 -0.502
-10.898 -5.236 -5.694
-8.591 -8.101 -0.502
-5.838 -7.322 1.491
-5.838 -7.321 1.490
-9.476 -2.670 -6.963
-8.407 -7.936 -0.484
-8.835 -4.484 -4.388
-9.476 -2.670 -6.963
-5.838 -7.322 1.491
-5.724 -7.225 1.486
-5.288 -8.047 2.755
-9.486 -2.663 -6.981
-5.527 -7.306 1.784
-5.866 -7.304 1.445
-5.787 -7.347 1.569
-5.866 -7.307 1.448
-8.409 -7.935 -0.486
-8.841 -4.479 -4.399
-9.666 -4.299 -5.407
-5.576 -7.339 1.769
-5.866 -7.310 1.451
-10.506 -2.367 -8.326
-8.640 -8.134 -0.518
-5.735 -7.338 1.605
-8.486 -8.011 -0.487
-5.848 -8.435 2.603
-8.409 -7.935 -0.487
-8.841 -4.479 -4.399
-10.725 -5.287 -5.467
-7.490 -8.394 0.886
-8.841 -4.479 -4.398
-4.988 -7.132 2.157
-5.866 -7.308 1.449
-8.640 -8.134 -0.518
-11.027 -5.205 -5.853
-5.245 -7.652 2.391
-9.486 -2.662 -6.981
-5.866 -7.307 1.447
-8.640 -8.134 -0.518
-8.409 -7.935 -0.487
-5.866 -7.309 1.450
-8.593 -8.101 -0.505
-5.288 -8.047 2.754
-5.527 -7.307 1.785
-7.705 -7.951 0.178
-8.593 -8.101 -0.505
-7.490 -8.394 0.886
-11.026 -5.205 -5.852
-8.407 -7.936 -0.485
-5.521 -7.417 1.875
-5.853 -7.396 1.544
-8.837 -4.541 -4.336
-5.866 -7.309 1.449
-8.640 -8.134 -0.517
-5.524 -7.444 1.898
-8.409 -7.935 -0.487
-8.805 -4.491 -4.351
-5.738 -7.505 1.743
-8.640 -8.134 -0.517
-8.640 -8.134 -0.517
-6.773 -8.161 1.378
-5.827 -7.541 1.717
-6.822 -8.192 1.378
-5.866 -7.308 1.449
-4.131 -7.840 3.705
-9.485 -2.663 -6.980
-8.640 -8.134 -0.517
-9.486 -2.663 -6.981
-8.593 -8.102 -0.503
-8.417 -6.718 -1.727
-8.841 -4.479 -4.398
-4.144 -7.838 3.690
-6.467 -8.540 2.071
-8.408 -7.935 -0.486
-5.866 -7.309 1.450
-5.786 -7.346 1.568
-5.866 -7.308 1.449
-3.571 -6.906 3.352
-4.131 -7.840 3.705
-8.640 -8.134 -0.518
-5.288 -8.048 2.755
-5.866 -7.308 1.448
-5.866 -7.308 1.449
-5.245 -7.652 2.391
-9.486 -2.662 -6.981
-7.490 -8.394 0.886
-7.490 -8.394 0.886
-8.841 -4.480 -4.398
-5.866 -7.308 1.448
-8.640 -8.134 -0.518
-8.841 -4.479 -4.399
-9.486 -2.662 -6.981
-8.640 -8.134 -0.518
-8.640 -8.134 -0.518
-11.027 -5.205 -5.854
-8.841 -4.479 -4.399
-8.640 -8.133 -0.518
-8.409 -7.935 -0.487
-6.200 -8.478 2.283
-9.477 -2.713 -6.917
-8.593 -8.101 -0.505
-6.200 -8.478 2.283
-5.527 -7.306 1.785
-5.866 -7.310 1.450
-8.796 -4.991 -3.834
-5.340 -8.048 2.705
-7.979 -6.635 -1.402
-5.866 -7.307 1.447
-8.813 -5.492 -3.342
-4.988 -7.132 2.156
-8.640 -8.134 -0.518
-6.822 -8.192 1.378
-8.841 -4.479 -4.398
-9.477 -2.713 -6.917
-5.908 -7.317 1.416
-8.841 -4.481 -4.396
-9.486 -2.662 -6.981
-8.505 -8.086 -0.432
-8.841 -4.479 -4.399
-5.340 -8.048 2.705
-5.650 -7.478 1.809
-9.486 -2.662 -6.981
-6.377 -7.056 0.656
-5.245 -7.652 2.391
-5.288 -8.046 2.754
-6.467 -8.540 2.071
-11.027 -5.205 -5.854
-7.490 -8.394 0.885
-8.640 -8.134 -0.518
-7.490 -8.394 0.886
-5.866 -7.308 1.448
-8.407 -7.936 -0.485
-7.941 -6.812 -1.184
-5.116 -8.164 3.065
-5.785 -7.348 1.571
-8.408 -7.936 -0.486
-8.841 -4.479 -4.398
-8.841 -4.479 -4.398
-8.486 -8.011 -0.487
-8.640 -8.134 -0.517
-5.748 -7.495 1.727
-6.155 -8.454 2.304
-4.130 -7.842 3.709
-8.640 -8.134 -0.517
-5.527 -7.307 1.786
-5.523 -7.440 1.895
-5.866 -7.306 1.447
-5.866 -7.309 1.450
-8.409 -7.935 -0.487
-5.340 -8.047 2.704
-5.866 -7.310 1.450
-11.027 -5.205 -5.854
-5.808 -7.592 1.783
-8.813 -5.471 -3.364
-5.245 -7.652 2.391
-5.866 -7.309 1.449
-4.131 -7.840 3.705
-5.761 -7.435 1.680
-7.490 -8.394 0.886
-5.786 -7.347 1.569
-6.195 -8.274 2.088
-8.841 -4.479 -4.398
-5.866 -7.309 1.449
-8.640 -8.134 -0.518
-9.486 -2.662 -6.981
-5.524 -7.438 1.892
-9.486 -2.662 -6.981
-3.280 -6.862 3.599
-5.288 -8.048 2.756
-8.841 -4.479 -4.399
-6.509 -8.561 2.050
-6.822 -8.193 1.379
-8.841 -4.479 -4.398
-7.618 -8.424 0.789
-8.593 -8.101 -0.505
-8.809 -5.604 -3.227
-8.409 -7.935 -0.487
-5.785 -7.347 1.570
-6.606 -8.376 1.758
-5.244 -7.652 2.391
-6.200 -8.478 2.283
-6.377 -7.055 0.656
-5.244 -7.652 2.391
-8.805 -4.491 -4.351
-11.027 -5.205 -5.853
-10.907 -5.231 -5.707
-9.486 -2.662 -6.981
-5.270 -6.975 1.693
-5.523 -7.425 1.882
-11.026 -5.205 -5.853
-5.866 -7.309 1.450
-9.485 -2.663 -6.980
-8.841 -4.479 -4.398
-8.813 -5.473 -3.361
-4.988 -7.132 2.157
-5.866 -7.310 1.451
-11.026 -5.205 -5.853
-5.834 -7.377 1.551
-5.786 -7.347 1.570
-11.026 -5.205 -5.853
-5.460 -7.418 1.935
-6.635 -6.988 0.317
-5.485 -7.406 1.905
-5.462 -7.447 1.960
-2.772 -6.003 3.245
-8.408 -7.936 -0.486
-8.408 -7.936 -0.486
-5.785 -7.347 1.570
-8.640 -8.134 -0.518
-7.965 -6.666 -1.356
-4.133 -7.837 3.701
-6.753 -8.172 1.409
-5.231 -7.656 2.409
-5.110 -8.164 3.071
-7.972 -6.643 -1.388
-9.481 -2.667 -6.971
-5.272 -8.215 2.940
-5.521 -7.441 1.897
-7.489 -8.394 0.887
-4.495 -7.053 2.570
-9.475 -2.714 -6.913
-8.808 -5.514 -3.314
-5.525 -7.310 1.790
-11.018 -5.207 -5.843
-4.868 -7.991 3.131
-5.576 -7.341 1.770
-5.865 -7.308 1.450
-8.639 -8.134 -0.517
-5.244 -7.653 2.392
-4.736 -7.024 2.302
-4.805 -8.201 3.388
-5.446 -7.358 1.896
-8.836 -4.480 -4.393
-5.865 -7.306 1.448
-8.552 -4.527 -4.151
-8.793 -5.446 -3.368
-5.785 -7.347 1.570
-6.805 -8.135 1.335
-5.864 -7.309 1.451
-8.640 -8.133 -0.518
-4.057 -7.858 3.769
-5.524 -7.431 1.886
-5.460 -7.424 1.942
-10.725 -5.287 -5.467
-4.466 -7.054 2.600
-8.813 -5.476 -3.358
-8.841 -4.479 -4.398
-5.525 -7.307 1.788
-11.027 -5.205 -5.853
-5.740 -7.464 1.728
-5.461 -7.435 1.951
-5.785 -7.351 1.574
-10.906 -5.231 -5.707
-5.865 -7.312 1.453
-5.837 -7.378 1.550
-5.525 -7.412 1.866
-8.640 -8.133 -0.518
-5.865 -7.309 1.450
-3.299 -6.904 3.617
-5.337 -8.052 2.711
-4.467 -7.032 2.576
-7.905 -6.565 -1.401
-7.979 -6.636 -1.402
-5.600 -7.556 1.938
-5.609 -7.461 1.832
-5.869 -7.307 1.445
-8.820 -5.170 -3.676
-5.869 -7.307 1.445
-9.476 -2.712 -6.918
-9.476 -2.712 -6.918
-5.528 -7.430 1.879
-5.150 -8.023 2.869
-6.776 -8.158 1.372
-8.842 -4.478 -4.400
-8.814 -5.460 -3.375
-8.506 -8.085 -0.434
-3.723 -6.498 2.762
-8.410 -7.934 -0.490
-3.338 -6.941 3.606
-5.528 -7.431 1.881
-5.529 -7.305 1.781
-10.907 -5.230 -5.709
-5.463 -7.461 1.970
-5.726 -7.221 1.480
-8.817 -4.551 -4.299
-5.353 -7.503 1.752
-4.255 -7.888 3.617
-5.868 -7.307 1.446
-7.941 -6.812 -1.183
-8.553 -4.526 -4.153
-8.806 -4.490 -4.353
-8.410 -7.934 -0.488
-8.842 -4.478 -4.400
-5.868 -7.307 1.445
-5.289 -8.047 2.754
-8.842 -4.478 -4.400
-5.463 -7.425 1.942
-5.868 -7.308 1.446
-8.806 -4.490 -4.353
-8.641 -8.133 -0.520
-8.814 -5.429 -3.407
-8.842 -4.478 -4.400
-5.530 -7.304 1.780
-8.641 -8.133 -0.520
-5.404 -8.029 2.630
-5.528 -7.456 1.906
-8.641 -8.132 -0.520
-6.635 -6.989 0.317
-4.167 -7.870 3.717
-6.196 -8.264 2.077
-9.485 -2.661 -6.982
-9.485 -2.661 -6.982
-11.028 -5.204 -5.856
-3.283 -6.855 3.590
-8.842 -4.478 -4.401
-5.046 -7.962 2.866
-5.710 -7.418 1.690
-5.153 -8.022 2.865
-11.028 -5.204 -5.856
-10.944 -5.190 -5.787
-5.849 -8.434 2.600
-11.028 -5.204 -5.856
-9.476 -2.712 -6.918
-5.788 -7.346 1.565
-8.807 -4.490 -4.354
-10.908 -5.229 -5.710
-9.476 -2.712 -6.918
-6.372 -8.454 2.078
-8.553 -4.526 -4.153
-11.027 -5.204 -5.855
-3.723 -6.498 2.762
-5.464 -7.436 1.948
-6.234 -8.906 2.677
-10.908 -5.230 -5.709
-10.908 -5.230 -5.709
-8.814 -5.459 -3.376
-5.528 -7.440 1.889
-5.869 -7.307 1.445
-4.131 -7.840 3.705
-5.530 -7.304 1.779
-9.485 -2.661 -6.982
-5.869 -7.307 1.445
-6.635 -6.988 0.317
-8.641 -8.132 -0.520
-8.641 -8.132 -0.520
-10.726 -5.286 -5.470
-5.657 -7.505 1.824
-9.485 -2.661 -6.982
-8.842 -4.478 -4.401
-11.026 -5.186 -5.872
-3.800 -6.501 2.689
-8.460 -8.051 -0.423
-3.305 -6.497 3.209
-11.028 -5.204 -5.856
-9.485 -2.661 -6.982
-5.528 -7.444 1.893
-6.699 -8.056 1.334
-5.788 -7.345 1.565
-5.530 -7.305 1.781
-5.869 -7.307 1.445
-9.485 -2.661 -6.982
-11.028 -5.204 -5.856
-8.641 -8.132 -0.520
-4.891 -8.020 3.145
-5.528 -7.441 1.890
-5.779 -7.436 1.642
-5.127 -8.125 2.938
-8.802 -4.442 -4.394
-6.201 -8.274 2.083
-5.868 -7.308 1.447
-5.528 -7.435 1.886
-5.602 -7.431 1.810
-4.155 -6.465 2.301
-5.530 -7.303 1.779
-9.476 -2.712 -6.918
-8.410 -7.934 -0.490
-6.773 -8.160 1.377
-11.028 -5.204 -5.856
-3.723 -6.498 2.762
-5.869 -7.307 1.445
-5.246 -7.652 2.390
-8.814 -5.461 -3.374
-5.610 -7.464 1.835
-5.788 -7.345 1.565
-8.814 -5.461 -3.374
-8.798 -4.911 -3.917
-8.798 -4.914 -3.914
-3.722 -6.497 2.762
-8.814 -5.470 -3.365
-6.608 -8.375 1.755
-10.944 -5.190 -5.787
-5.523 -7.486 1.938
-5.788 -7.345 1.565
-2.937 -5.774 2.857
-10.944 -5.190 -5.787
-5.527 -7.425 1.876
-5.527 -7.438 1.888
-5.153 -8.022 2.865
-5.463 -7.428 1.940
-8.842 -4.478 -4.401
-8.842 -4.478 -4.401
-8.409 -7.934 -0.488
-6.773 -8.160 1.377
-7.979 -6.633 -1.406
-9.485 -2.661 -6.982
-3.341 -6.503 3.140
-5.289 -8.047 2.754
-7.979 -6.633 -1.406
-10.346 -2.308 -8.226
-5.464 -7.423 1.937
-3.897 -7.845 3.944
-5.789 -7.345 1.564
-10.943 -5.190 -5.786
-5.463 -7.447 1.962
-5.511 -7.386 1.844
-5.289 -8.047 2.754
-5.153 -8.022 2.865
-4.808 -7.676 2.882
-6.823 -8.192 1.378
-7.938 -6.839 -1.151
-9.486 -2.661 -6.983
-11.027 -5.202 -5.856
-10.691 -5.326 -5.394
-8.553 -4.526 -4.153
-4.625 -7.614 2.972
-5.527 -7.444 1.895
-5.463 -7.440 1.952
-9.485 -2.661 -6.982
-9.485 -2.661 -6.982
-3.722 -6.498 2.763
-6.201 -8.478 2.282
-10.691 -5.327 -5.393
-6.701 -8.058 1.335
-5.714 -7.433 1.702
-5.341 -8.049 2.705
-10.692 -5.326 -5.394
-2.828 -6.003 3.188
-5.246 -7.652 2.390
-9.485 -2.661 -6.982
-8.795 -5.728 -3.084
-3.445 -6.541 3.105
-5.504 -7.441 1.914
-5.572 -7.311 1.745
-11.028 -5.204 -5.856
-10.944 -5.190 -5.786
-5.289 -8.047 2.754
-4.121 -7.808 3.689
-8.842 -4.478 -4.400
-3.722 -6.498 2.763
-11.028 -5.204 -5.856
-5.580 -7.339 1.764
-3.455 -6.199 2.693
-5.463 -7.427 1.941
-5.778 -7.436 1.642
-5.769 -7.438 1.654
-3.305 -6.499 3.212
-5.287 -8.046 2.754
-10.683 -5.328 -5.383
-10.989 -5.308 -5.721
-5.152 -8.022 2.865
-6.777 -8.160 1.374
-5.712 -7.434 1.705
-5.524 -7.442 1.895
-5.570 -7.316 1.752
-5.774 -7.436 1.646
-3.340 -6.274 2.915
-5.527 -7.306 1.785
-2.774 -6.003 3.244
-10.899 -5.231 -5.699
-8.638 -8.134 -0.516
-9.485 -2.663 -6.978
-8.638 -8.134 -0.516
-5.712 -7.434 1.705
-4.131 -7.838 3.703
-4.206 -7.531 3.332
-6.773 -8.161 1.378
-3.398 -6.490 3.069
-10.899 -5.233 -5.697
-5.773 -7.451 1.662
-5.244 -7.652 2.391
-6.815 -8.198 1.391
-2.772 -6.003 3.245
-5.522 -7.444 1.902
-8.837 -4.480 -4.393
-5.866 -7.308 1.449
-3.341 -6.943 3.605
-5.288 -8.047 2.755
-5.784 -7.274 1.499
-5.786 -7.347 1.568
-5.713 -7.432 1.703
-7.975 -6.637 -1.397
-8.819 -4.634 -4.213
-9.485 -2.664 -6.977
-5.462 -7.436 1.949
-5.462 -7.435 1.949
-5.459 -7.472 1.988
-5.712 -7.434 1.705
-3.853 -6.495 2.631
-8.836 -4.480 -4.393
-5.462 -7.446 1.959
-5.288 -8.048 2.755
-5.288 -8.047 2.754
-9.410 -2.721 -6.840
-5.436 -8.444 3.017
-8.836 -4.481 -4.392
-5.774 -7.439 1.649
-6.199 -8.478 2.284
-5.524 -7.442 1.896
-5.527 -7.306 1.785
-8.638 -8.134 -0.516
-8.809 -5.477 -3.353
-11.019 -5.206 -5.844
-7.902 -6.570 -1.392
-9.485 -2.663 -6.978
-7.938 -6.815 -1.177
-6.193 -8.278 2.094
-8.504 -8.086 -0.431
-10.899 -5.232 -5.698
-5.338 -8.038 2.700
-10.683 -5.329 -5.382
-4.529 -7.178 2.668
-5.288 -8.046 2.754
-3.341 -6.480 3.116
-4.467 -7.065 2.610
-10.899 -5.232 -5.698
-5.522 -7.455 1.908
-2.937 -5.775 2.858
-5.403 -8.029 2.631
-4.138 -7.838 3.696
-11.019 -5.206 -5.844
-6.508 -8.563 2.053
-8.808 -5.478 -3.351
-4.736 -7.041 2.318
-8.638 -8.134 -0.516
-2.937 -5.796 2.877
-5.527 -7.307 1.785
-11.019 -5.206 -5.844
-5.599 -7.460 1.839
-3.855 -6.496 2.629
-6.816 -8.199 1.392
-9.475 -2.714 -6.913
-5.776 -7.437 1.645
-8.808 -5.478 -3.351
-8.792 -4.972 -3.849
-5.776 -7.437 1.645
-5.569 -7.316 1.753
-8.801 -4.493 -4.345
-5.525 -7.454 1.905
-5.288 -8.047 2.755
-5.711 -7.435 1.707
-5.288 -8.047 2.755
-11.018 -5.206 -5.844
-5.774 -7.411 1.623
-6.508 -8.562 2.052
-7.934 -6.842 -1.144
-6.508 -8.562 2.052
-4.487 -6.993 2.520
-5.865 -7.309 1.450
-5.527 -7.306 1.785
-3.909 -7.843 3.931
-11.018 -5.207 -5.844
-6.234 -8.906 2.678
-3.721 -6.498 2.764
-5.769 -7.431 1.667
-8.639 -8.134 -0.516
-5.525 -7.451 1.904
-4.495 -7.051 2.568
-10.655 -5.335 -5.355
-4.137 -7.838 3.697
-8.836 -4.481 -4.392
-2.665 -5.566 2.919
-8.784 -4.503 -4.318
-10.908 -5.231 -5.709
-8.738 -6.362 -2.389
-3.800 -6.501 2.690
-5.578 -7.342 1.769
-5.152 -8.022 2.866
-4.723 -6.986 2.279
-5.505 -7.433 1.904
-2.791 -6.009 3.233
-5.108 -8.154 3.061
-5.288 -8.047 2.754
-9.479 -2.712 -6.919
-8.805 -4.489 -4.353
-5.526 -7.439 1.891
-8.456 -7.969 -0.499
-8.839 -4.479 -4.397
-6.821 -8.177 1.365
-8.723 -6.553 -2.175
-5.150 -8.025 2.868
-5.527 -7.445 1.896
-3.335 -6.481 3.123
-5.601 -7.439 1.817
-5.570 -7.315 1.751
-10.830 -5.237 -5.624
-3.399 -7.333 3.898
-5.462 -7.432 1.947
-10.908 -5.231 -5.709
-2.770 -6.006 3.250
-5.521 -7.474 1.928
-5.527 -7.307 1.785
-5.600 -7.432 1.812
-5.777 -7.437 1.644
-3.528 -6.572 3.010
-5.899 -7.249 1.358
-5.777 -7.438 1.645
-5.785 -7.369 1.590
-5.527 -7.448 1.898
-6.377 -7.056 0.657
-4.160 -7.840 3.676
-3.722 -6.498 2.764
-2.759 -4.994 2.260
-8.839 -4.479 -4.397
-11.022 -5.205 -5.849
-7.939 -6.812 -1.181
-8.839 -4.479 -4.397
-3.721 -6.499 2.765
-5.526 -7.446 1.897
-9.415 -2.718 -6.849
-5.569 -7.316 1.753
-3.779 -6.493 2.702
-5.777 -7.437 1.644
-5.463 -7.443 1.955
-9.488 -2.662 -6.983
-8.812 -5.430 -3.403
-4.156 -6.475 2.309
-5.570 -7.316 1.752
-5.526 -7.428 1.881
-5.786 -7.348 1.569
-5.570 -7.316 1.752
-11.022 -5.205 -5.849
-5.611 -7.470 1.839
-7.907 -6.557 -1.410
-3.724 -6.501 2.765
-5.779 -7.434 1.639
-5.572 -7.315 1.748
-5.340 -8.048 2.705
-4.250 -7.315 3.082
-5.789 -7.346 1.565
-2.686 -4.845 2.183
-7.617 -8.422 0.788
-10.693 -5.326 -5.396
-5.572 -7.314 1.748
-5.570 -7.584 2.001
-11.023 -5.204 -5.851
-5.341 -8.048 2.704
-5.506 -7.439 1.911
-8.786 -4.501 -4.321
-5.610 -7.472 1.841
-5.779 -7.438 1.644
-10.694 -5.326 -5.396
-5.611 -7.467 1.836
-4.156 -6.474 2.308
-5.455 -7.447 1.992
-8.770 -4.513 -4.293
-5.567 -7.387 1.798
-10.909 -5.230 -5.711
-5.711 -7.271 1.544
-5.505 -7.405 1.880
-5.572 -7.315 1.748
-6.754 -8.091 1.317
-5.166 -8.015 2.851
-5.715 -7.441 1.709
-10.946 -5.191 -5.787
-10.831 -5.236 -5.626
-6.511 -8.562 2.049
-3.723 -6.498 2.762
-10.909 -5.230 -5.711
-8.807 -5.546 -3.282
-5.771 -7.358 1.577
-6.816 -8.198 1.390
-5.507 -7.447 1.916
-6.197 -8.267 2.079
-5.452 -8.446 3.003
-8.769 -4.573 -4.231
-5.573 -7.314 1.747
-11.023 -5.204 -5.851
-8.806 -4.489 -4.353
-5.465 -7.443 1.953
-5.383 -7.596 2.188
-4.029 -7.292 3.280
-5.738 -7.531 1.789
-3.723 -6.497 2.761
-5.506 -7.442 1.914
-4.494 -7.004 2.523
-5.581 -7.339 1.764
-5.780 -7.429 1.634
-5.534 -7.251 1.705
-10.946 -5.190 -5.788
-10.946 -5.190 -5.788
-8.806 -4.488 -4.355
-5.750 -7.432 1.669
-5.573 -7.314 1.748
-5.602 -7.419 1.798
-3.711 -6.601 2.876
-5.162 -6.821 1.660
-5.611 -7.471 1.840
-4.589 -7.176 2.606
-4.154 -6.473 2.309
-2.813 -5.359 2.571
-8.230 -6.900 -1.398
-7.617 -8.425 0.790
-6.820 -8.194 1.383
-3.372 -6.197 2.809
-5.288 -8.049 2.756
-4.074 -6.515 2.428
-5.740 -7.469 1.733
-10.898 -5.232 -5.697
-5.526 -7.306 1.785
-5.599 -7.374 1.780
-8.808 -5.481 -3.348
-2.748 -5.992 3.258
-5.759 -7.339 1.574
-5.526 -7.307 1.786
-5.776 -7.437 1.645
-2.838 -5.492 2.673
-3.855 -6.496 2.629
-6.822 -8.196 1.382
-3.721 -6.498 2.765
-3.926 -6.812 2.890
-4.142 -7.827 3.682
-8.784 -4.502 -4.318
-5.526 -7.438 1.890
-5.452 -8.446 3.003
-5.526 -7.432 1.887
-3.392 -6.472 3.059
-5.452 -8.446 3.003
-5.526 -7.451 1.902
-6.759 -8.092 1.314
-8.455 -7.969 -0.497
-4.600 -7.138 2.557
-4.734 -7.095 2.373
-2.770 -6.005 3.250
-2.254 -5.148 2.904
-4.156 -6.475 2.309
-5.568 -7.447 1.857
-8.805 -4.488 -4.354
-5.781 -7.352 1.576
-8.805 -4.489 -4.352
-5.601 -7.373 1.778
-4.126 -6.504 2.366
-6.816 -8.197 1.390
-8.757 -5.122 -3.661
-5.527 -7.307 1.786
-5.777 -7.445 1.652
-2.356 -4.621 2.282
-5.785 -7.387 1.610
-5.526 -7.435 1.887
-10.692 -5.327 -5.393
-5.457 -8.445 2.997
-3.373 -6.189 2.800
-10.946 -5.189 -5.790
-5.458 -8.445 2.996
-5.567 -7.450 1.862
-3.769 -6.503 2.722
-5.494 -7.410 1.889
-4.720 -7.161 2.462
-3.335 -6.506 3.148
-10.944 -5.191 -5.785
-1.962 -4.858 2.903
-5.527 -7.308 1.786
-8.805 -4.489 -4.353
-3.862 -6.810 2.952
-3.722 -6.499 2.764
-6.191 -8.253 2.071
-5.108 -8.154 3.061
-5.746 -7.294 1.530
-5.527 -8.446 2.929
-3.855 -6.496 2.629
-2.671 -6.505 3.851
-5.567 -7.443 1.855
-5.564 -7.419 1.834
-10.944 -5.191 -5.785
-3.768 -6.503 2.722
-6.190 -8.261 2.080
-4.081 -6.471 2.379
-5.650 -7.479 1.809
-5.509 -7.441 1.907
-4.505 -7.051 2.558
-3.862 -6.814 2.958
-10.908 -5.231 -5.708
-5.108 -8.154 3.061
-5.712 -7.434 1.705
-3.393 -6.476 3.061
-3.769 -6.503 2.721
-4.889 -8.217 3.320
-3.722 -6.499 2.764
-4.596 -7.144 2.568
-5.570 -7.315 1.751
-4.597 -7.120 2.544
-10.944 -5.191 -5.785
-6.816 -8.196 1.388
-10.908 -5.231 -5.708
-10.944 -5.191 -5.785
-5.786 -7.348 1.570
-5.601 -7.374 1.779
-5.504 -7.455 1.926
-8.805 -4.489 -4.353
-9.318 -2.659 -6.812
-10.944 -5.191 -5.785
-4.530 -7.085 2.577
-5.458 -8.445 2.997
-3.391 -6.293 2.881
-3.827 -6.402 2.597
-4.781 -7.312 2.528
-5.457 -8.445 2.997
-5.777 -7.437 1.645
-5.567 -7.436 1.849
-2.835 -5.242 2.417
-5.150 -7.974 2.822
-3.911 -6.413 2.523
-3.769 -6.503 2.721
-5.505 -7.445 1.916
-8.769 -4.511 -4.293
-5.505 -7.433 1.906
-3.336 -6.494 3.134
-5.452 -8.446 3.003
-5.108 -8.154 3.061
-6.192 -8.276 2.093
-3.406 -6.174 2.751
-3.778 -6.467 2.677
-5.451 -8.446 3.003
-3.799 -6.502 2.691
-5.569 -7.316 1.753
-5.504 -7.450 1.921
-10.908 -5.231 -5.708
-4.523 -7.122 2.618
-3.373 -6.192 2.803
-5.116 -8.163 3.064
-5.210 -7.585 2.333
-6.820 -8.193 1.380
-5.599 -7.430 1.813
-5.518 -8.459 2.951
-5.866 -7.309 1.450
-5.500 -7.418 1.900
-4.648 -7.388 2.760
-4.594 -7.170 2.597
-5.460 -8.445 2.994
-5.701 -7.263 1.560
-10.908 -5.231 -5.708
-3.722 -6.498 2.764
-3.862 -6.811 2.953
-3.800 -6.502 2.690
-5.568 -7.459 1.868
-5.012 -8.490 3.458
-5.527 -7.307 1.786
-5.600 -7.463 1.842
-4.966 -8.268 3.257
-5.567 -7.443 1.855
-5.457 -8.445 2.997
-10.944 -5.191 -5.785
-5.776 -7.429 1.637
-5.574 -7.331 1.763
-8.811 -5.431 -3.402
-5.570 -7.316 1.752
-5.567 -7.439 1.852
-4.520 -7.115 2.614
-2.596 -4.701 2.126
-3.799 -6.502 2.691
-4.081 -6.471 2.379
-2.815 -5.570 2.772
-5.452 -8.445 3.002
-4.826 -7.824 2.956
-5.777 -7.437 1.644
-5.598 -7.476 1.855
-5.103 -8.440 3.343
-5.452 -8.446 3.003
-5.566 -7.452 1.864
-3.575 -6.379 2.820
-5.107 -8.145 3.054
-5.480 -8.441 2.969
-4.322 -8.146 3.834
-3.335 -6.257 2.901
-5.452 -8.446 3.003
-3.814 -6.539 2.699
-3.373 -6.198 2.809
-5.170 -8.014 2.846
-6.191 -8.276 2.093
-3.862 -6.811 2.953
-5.567 -7.441 1.854
-5.452 -8.446 3.003
-3.768 -6.503 2.722
-4.644 -7.145 2.521
-5.540 -8.447 2.917
-4.156 -6.477 2.311
-9.487 -2.662 -6.981
-5.288 -8.046 2.754
-3.911 -6.411 2.522
-5.655 -7.492 1.814
-5.471 -8.443 2.981
-2.687 -4.840 2.178
-3.306 -6.498 3.210
-5.567 -7.443 1.855
-4.155 -6.475 2.310
-6.162 -8.164 1.998
-5.462 -8.444 2.992
-5.462 -8.444 2.992
-6.052 -7.929 1.829
-4.523 -7.107 2.605
-4.318 -8.141 3.834
-4.539 -7.205 2.679
-10.969 -5.225 -5.776
-10.944 -5.192 -5.784
-5.458 -8.445 2.997
-5.495 -7.396 1.879
-5.503 -7.439 1.914
-4.317 -8.139 3.833
-10.970 -5.225 -5.776
-6.192 -8.281 2.097
-6.193 -8.272 2.088
-5.172 -7.988 2.804
-5.172 -7.982 2.798
-5.172 -7.980 2.797
-5.872 -8.293 2.430
-5.173 -7.983 2.798
-4.686 -7.608 2.911
-5.173 -7.981 2.796
-7.047 -8.186 1.148
-5.349 -8.075 2.710
-5.356 -8.151 2.810
-5.349 -8.075 2.710
-7.148 -8.213 1.074
-5.619 -8.079 2.464
-5.423 -8.041 2.620
-7.047 -8.186 1.148
-7.047 -8.186 1.148
-7.047 -8.186 1.148
-7.047 -8.186 1.148
-5.207 -8.149 2.958
-5.998 -8.286 2.297
-5.349 -8.074 2.709
-5.349 -8.079 2.714
-7.047 -8.186 1.148
-5.349 -8.076 2.710
-7.047 -8.186 1.148
-5.619 -8.166 2.536
-7.047 -8.186 1.148
-6.568 -8.274 1.718
-5.423 -8.041 2.620
-5.207 -8.148 2.956
-4.762 -7.834 3.062
-5.420 -8.041 2.623
-6.848 -8.202 1.359
-6.978 -8.210 1.241
-5.558 -8.167 2.599
-6.978 -8.210 1.241
-4.977 -7.737 2.776
-6.981 -8.210 1.238
-5.188 -8.152 2.979
-6.981 -8.210 1.238
-6.104 -8.301 2.205
-5.422 -8.155 2.747
-7.046 -8.188 1.151
-7.046 -8.188 1.151
-5.207 -8.149 2.958
-6.448 -8.247 1.809
-7.046 -8.188 1.151
-4.989 -7.732 2.756
-5.346 -8.077 2.715
-7.048 -8.187 1.148
-5.206 -8.150 2.959
-6.560 -8.254 1.703
-6.431 -8.193 1.764
-6.731 -8.184 1.458
-7.049 -8.186 1.146
-7.049 -8.186 1.146
-5.346 -8.076 2.713
-5.346 -8.073 2.710
-7.048 -8.187 1.148
-5.346 -8.074 2.712
-5.206 -8.149 2.958
-5.346 -8.077 2.714
-5.206 -8.149 2.958
-7.048 -8.187 1.148
-7.048 -8.187 1.148
-4.847 -7.671 2.837
-5.346 -8.076 2.713
-7.149 -8.213 1.074
-4.997 -7.701 2.719
-6.457 -8.245 1.798
-6.139 -8.290 2.159
-6.139 -8.290 2.159
-6.568 -8.275 1.717
-5.333 -8.133 2.779
-5.346 -8.075 2.712
-5.346 -8.074 2.712
-7.048 -8.187 1.148
-5.355 -8.151 2.811
-6.562 -8.275 1.724
-6.413 -8.201 1.790
-7.049 -8.186 1.147
-7.049 -8.187 1.147
-5.617 -8.166 2.538
-6.568 -8.276 1.719
-6.568 -8.275 1.718
-5.616 -8.080 2.466
-5.617 -8.166 2.538
-7.049 -8.187 1.147
-4.847 -7.671 2.838
-5.616 -8.079 2.466
-7.049 -8.186 1.147
-5.207 -8.149 2.957
-6.048 -8.291 2.252
-6.048 -8.290 2.252
-6.450 -8.246 1.805
-6.136 -8.290 2.163
-5.768 -7.436 1.652
-7.052 -8.186 1.143
-3.402 -5.038 1.658
-4.829 -7.680 2.866
-7.052 -8.186 1.143
-7.052 -8.186 1.143
-5.349 -8.080 2.714
-5.209 -8.149 2.955
-5.209 -8.150 2.956
-5.349 -8.076 2.711
-7.051 -8.186 1.144
-3.376 -5.172 1.818
-7.051 -8.186 1.144
-7.051 -8.186 1.144
-5.349 -8.074 2.708
-5.336 -8.131 2.775
-3.464 -5.059 1.617
-5.182 -7.748 2.578
-5.622 -8.165 2.532
-7.053 -8.186 1.142
-6.459 -8.245 1.796
-7.053 -8.186 1.142
-7.053 -8.186 1.142
-6.143 -8.289 2.154
-4.998 -7.699 2.716
-7.053 -8.186 1.142
-7.053 -8.186 1.142
-7.053 -8.186 1.142
-3.378 -5.038 1.684
-7.053 -8.186 1.142
-7.053 -8.186 1.142
-7.053 -8.186 1.142
-3.557 -4.415 0.877
-5.622 -8.165 2.532
-3.440 -5.051 1.634
-6.442 -8.192 1.753
-5.618 -8.079 2.464
-7.053 -8.186 1.141
-6.144 -8.289 2.153
-6.570 -8.274 1.714
-6.458 -8.243 1.796
-3.466 -5.038 1.595
-5.351 -8.075 2.708
-7.052 -8.186 1.142
-6.442 -8.192 1.752
-7.053 -8.186 1.141
-6.458 -8.230 1.782
-7.053 -8.186 1.142
-7.053 -8.186 1.141
-6.458 -8.250 1.802
-5.274 -6.300 1.039
-3.922 -6.733 2.814
-3.552 -4.421 0.889
-5.416 -8.049 2.634
-7.049 -8.186 1.147
-4.848 -7.671 2.836
-5.274 -6.288 1.026
-6.570 -8.275 1.716
-6.570 -8.274 1.715
-6.458 -8.244 1.796
-5.179 -7.770 2.603
-7.048 -8.186 1.147
-7.048 -8.187 1.147
-5.770 -7.437 1.651
-6.454 -8.244 1.800
-3.596 -4.520 0.944
-6.256 -8.371 2.093
-7.053 -8.186 1.141
-6.459 -8.243 1.794
-6.459 -8.244 1.795
-4.849 -7.671 2.836
-5.212 -8.149 2.952
-5.433 -6.326 0.905
-3.461 -5.041 1.602
-5.419 -8.040 2.623
-7.048 -8.186 1.147
-5.204 -8.151 2.962
-3.462 -5.036 1.597
-7.048 -8.186 1.147
-6.458 -8.244 1.797
-6.135 -8.290 2.162
-5.204 -8.154 2.965
-5.770 -7.438 1.653
-4.733 -7.627 2.884
-3.438 -5.200 1.784
-3.479 -4.527 1.067
-2.732 -4.655 1.943
-3.713 -4.489 0.795
-6.448 -8.247 1.809
-5.275 -6.297 1.034
-5.418 -8.039 2.624
-3.712 -4.515 0.821
-3.465 -5.036 1.595
-4.610 -7.679 3.058
-5.210 -8.149 2.954
-5.770 -7.434 1.649
-7.050 -8.187 1.145
-3.464 -5.038 1.596
-7.050 -8.187 1.145
-7.050 -8.187 1.146
-6.457 -8.245 1.798
-7.050 -8.187 1.146
-5.210 -8.148 2.954
-7.050 -8.187 1.146
-7.050 -8.187 1.145
-5.345 -8.090 2.726
-3.711 -4.362 0.670
-7.050 -8.186 1.145
-5.423 -8.039 2.619
-3.562 -5.026 1.486
-4.848 -7.671 2.837
-7.050 -8.186 1.145
-3.562 -5.028 1.489
-7.050 -8.186 1.145
-6.458 -8.244 1.796
-6.458 -8.245 1.797
-3.461 -5.056 1.618
-7.050 -8.186 1.145
-7.050 -8.186 1.145
-5.619 -8.165 2.535
-7.050 -8.186 1.145
-6.458 -8.243 1.795
-5.768 -7.408 1.628
-7.050 -8.186 1.144
-6.141 -8.289 2.156
-6.458 -8.243 1.795
-5.208 -8.150 2.957
-5.229 -7.878 2.644
-4.761 -7.834 3.064
-3.465 -5.045 1.603
-5.770 -7.432 1.646
-3.711 -4.356 0.663
-7.050 -8.186 1.144
-6.141 -8.289 2.156
-3.703 -6.117 2.404
-3.383 -5.022 1.663
-3.396 -5.040 1.667
-6.448 -8.246 1.809
-6.560 -8.274 1.725
-6.730 -8.159 1.436
-5.025 -8.194 3.146
-7.051 -8.186 1.144
-5.208 -8.150 2.957
-5.766 -7.440 1.659
-5.347 -8.077 2.713
-6.457 -8.245 1.798
-3.465 -5.043 1.601
-5.208 -8.150 2.957
-7.050 -8.186 1.145
-6.458 -8.243 1.795
-3.561 -5.020 1.482
-5.346 -8.074 2.711
-6.769 -8.171 1.408
-6.460 -8.242 1.792
-6.460 -8.244 1.794
-6.460 -8.242 1.792
-3.464 -5.042 1.602
-6.135 -8.289 2.162
-6.449 -8.245 1.807
-7.051 -8.186 1.144
-7.051 -8.186 1.144
-7.051 -8.186 1.144
-3.383 -5.004 1.645
-5.417 -8.040 2.626
-3.712 -4.497 0.804
-3.382 -5.029 1.670
-6.446 -8.245 1.809
-6.448 -8.247 1.810
-4.847 -7.671 2.837
-6.560 -8.276 1.727
-7.050 -8.186 1.145
-6.458 -8.245 1.797
-6.458 -8.243 1.795
-6.430 -8.193 1.765
-3.462 -5.044 1.605
-3.562 -5.031 1.492
-4.158 -6.474 2.306
-3.459 -5.068 1.632
-7.051 -8.186 1.144
-6.459 -8.244 1.796
-3.291 -5.511 2.235
-5.725 -7.462 1.708
-3.433 -5.092 1.682
-6.507 -8.292 1.796
-5.362 -8.037 2.678
-3.378 -5.162 1.806
-5.863 -6.855 0.908
-5.121 -7.783 2.677
-5.374 -8.043 2.672
-6.095 -8.300 2.214
-3.385 -5.056 1.694
-3.376 -5.040 1.688
-3.276 -4.975 1.720
-3.443 -5.033 1.613
-6.978 -8.210 1.241
-4.815 -7.692 2.884
-5.372 -8.043 2.674
-6.407 -8.266 1.870
-6.978 -8.210 1.241
-6.012 -8.303 2.301
-4.588 -7.678 3.079
-6.983 -8.209 1.235
-5.122 -7.784 2.677
-6.705 -8.190 1.490
-6.982 -8.209 1.236
-3.571 -4.521 0.969
-6.398 -8.267 1.880
-6.982 -8.209 1.237
-3.546 -5.027 1.503
-3.580 -4.521 0.961
-6.982 -8.209 1.236
-6.982 -8.210 1.237
-3.382 -5.046 1.687
-4.938 -7.215 2.255
-6.982 -8.209 1.236
-4.143 -6.486 2.336
-3.235 -6.255 3.037
-6.405 -8.268 1.873
-6.405 -8.268 1.873
-6.405 -8.267 1.872
-6.097 -8.301 2.212
-2.888 -5.979 3.106
-3.917 -6.730 2.815
-5.188 -8.152 2.979
-5.761 -7.441 1.666
-6.982 -8.209 1.236
-6.586 -8.175 1.593
-4.517 -7.650 3.122
-3.461 -5.078 1.638
-3.561 -5.027 1.488
-4.450 -7.168 2.728
-4.004 -6.618 2.611
-5.025 -8.193 3.146
-4.335 -6.808 2.479
-6.457 -8.244 1.797
-6.457 -8.246 1.799
-3.596 -4.531 0.955
-7.051 -8.186 1.144
-7.051 -8.186 1.144
-3.220 -4.694 1.486
-3.694 -6.112 2.406
-3.712 -4.356 0.663
-4.288 -7.859 3.558
-3.234 -6.253 3.035
-5.140 -6.933 1.807
-3.233 -6.253 3.036
-3.406 -5.059 1.675
-7.050 -8.186 1.144
-7.050 -8.186 1.144
-3.358 -4.886 1.548
-3.459 -5.072 1.634
-3.446 -5.202 1.778
-7.051 -8.186 1.143
-6.586 -8.175 1.593
-6.462 -8.243 1.792
-3.720 -4.526 0.825
-6.450 -8.245 1.805
-3.446 -5.211 1.787
-7.051 -8.186 1.144
-4.517 -7.652 3.123
-5.420 -8.040 2.622
-7.053 -8.186 1.141
-4.849 -7.671 2.836
-3.276 -4.529 1.263
-3.234 -6.253 3.035
-5.422 -8.040 2.620
-2.539 -7.273 4.730
-5.210 -8.149 2.955
-5.752 -7.381 1.627
-6.191 -6.948 0.778
-5.334 -8.130 2.776
-6.458 -8.245 1.797
-6.570 -8.272 1.714
-3.554 -4.413 0.877
-5.418 -8.041 2.625
-5.346 -8.075 2.712
-4.268 -5.972 1.727
-3.395 -5.060 1.688
-6.435 -8.192 1.760
-5.217 -8.030 2.808
-3.385 -5.037 1.675
-5.211 -8.018 2.806
-3.458 -5.082 1.644
-6.437 -8.192 1.757
-5.688 -7.330 1.645
-3.694 -6.109 2.404
-4.998 -7.699 2.716
-5.806 -6.816 1.013
-2.712 -6.218 3.506
-5.275 -8.188 2.905
-2.767 -5.952 3.200
-2.983 -6.680 3.692
-5.335 -8.131 2.776
-6.195 -6.975 0.801
-3.489 -5.083 1.618
-6.768 -8.171 1.408
-5.129 -7.785 2.670
-5.209 -8.150 2.956
-6.452 -8.246 1.804
-5.346 -8.074 2.711
-7.050 -8.186 1.145
-3.562 -5.021 1.482
-5.627 -7.171 1.552
-5.207 -8.150 2.957
-5.433 -6.325 0.905
-6.456 -8.245 1.800
-4.660 -6.572 1.924
-3.443 -5.190 1.769
-4.848 -7.671 2.836
-5.207 -8.150 2.958
-4.236 -5.909 1.695
-5.198 -8.130 2.946
-4.666 -6.602 1.946
-3.922 -6.725 2.805
-5.171 -8.032 2.854
-7.049 -8.186 1.146
-6.458 -8.244 1.796
-3.462 -5.050 1.611
-5.667 -7.237 1.577
-7.051 -8.186 1.144
-7.051 -8.186 1.144
-7.051 -8.186 1.144
-3.721 -4.517 0.816
-3.563 -5.020 1.479
-2.599 -6.440 3.854
-4.186 -5.526 1.353
-3.396 -5.039 1.667
-3.292 -4.485 1.211
-3.229 -5.888 2.675
-7.052 -8.186 1.143
-3.269 -8.428 5.165
-5.205 -8.150 2.960
-3.520 -4.354 0.855
-3.571 -4.395 0.842
-7.046 -8.188 1.150
-5.337 -7.110 1.757
-3.641 -4.386 0.764
-4.110 -6.580 2.475
-5.770 -7.434 1.649
-3.390 -5.023 1.656
-3.396 -5.071 1.698
-5.580 -7.262 1.655
-5.762 -7.364 1.592
-3.499 -5.130 1.653
-3.708 -4.554 0.864
-3.217 -5.364 2.154
-4.235 -5.907 1.693
-5.208 -8.150 2.957
-6.134 -8.290 2.164
-3.549 -7.236 3.704
-5.770 -7.437 1.652
-3.477 -5.399 1.944
-2.386 -4.789 2.416
-3.390 -5.039 1.672
-3.563 -5.026 1.486
-3.480 -5.442 1.984
-9.594 -10.400 0.819
-9.926 -11.156 1.239
-9.591 -10.385 0.806
-9.752 -10.957 1.210
-9.894 -10.967 1.078
-9.990 -11.115 1.133
-9.597 -10.432 0.843
-9.981 -11.085 1.110
-9.580 -10.323 0.753
-9.421 -10.413 1.003
-10.374 -11.051 0.687
-9.483 -10.427 0.952
-9.589 -10.412 0.834
-9.582 -10.330 0.757
-9.907 -11.032 1.135
-9.742 -11.370 1.635
-9.483 -10.427 0.952
-9.983 -11.101 1.126
-9.591 -10.400 0.822
-9.986 -11.117 1.139
-9.986 -11.117 1.139
-9.983 -11.112 1.139
-9.811 -10.860 1.055
-9.420 -10.414 1.005
-9.168 -10.137 0.973
-9.808 -11.366 1.567
-9.590 -10.376 0.799
-9.483 -10.427 0.952
-9.591 -10.397 0.819
-10.374 -11.052 0.689
-10.058 -11.362 1.315
-9.168 -10.135 0.971
-9.985 -11.124 1.146
-9.984 -11.126 1.150
-9.742 -11.370 1.635
-9.591 -10.396 0.817
-9.783 -11.125 1.349
-9.742 -11.370 1.635
-9.984 -11.124 1.147
-10.058 -11.364 1.317
-10.371 -11.029 0.667
-10.368 -11.016 0.658
-9.591 -10.395 0.816
-9.986 -11.110 1.132
-9.591 -10.397 0.818
-9.809 -11.383 1.585
-9.165 -10.165 1.005
-10.058 -11.358 1.312
-10.395 -11.331 0.943
-9.591 -10.388 0.810
-9.988 -11.112 1.132
-9.936 -11.047 1.118
-9.902 -11.016 1.124
-10.334 -10.925 0.606
-9.806 -11.379 1.586
-9.985 -11.088 1.109
-9.618 -11.172 1.564
-10.377 -11.054 0.687
-10.372 -11.013 0.655
-10.378 -11.040 0.674
-9.478 -11.388 1.918
-10.229 -10.927 0.697
-9.977 -11.066 1.095
-9.990 -11.112 1.129
-9.952 -11.102 1.149
-9.972 -10.919 0.962
-9.483 -10.428 0.952
-9.988 -11.101 1.121
-10.550 -11.005 0.465
-9.994 -11.112 1.125
-10.402 -11.357 0.966
-9.486 -11.389 1.910
-10.070 -11.367 1.308
-9.990 -11.105 1.122
-9.594 -10.407 0.825
-9.478 -11.388 1.918