-6.552 -6.800 0.240
-6.552 -6.800 0.240
-5.459 -6.415 0.958
-5.459 -6.415 0.958
-6.557 -6.799 0.235
-5.459 -6.415 0.958
-6.557 -6.799 0.235
-6.557 -6.799 0.235
-6.281 -6.249 -0.029
-6.359 -6.520 0.158
-6.359 -6.520 0.158
-6.281 -6.528 0.243
-5.459 -6.415 0.958
-6.281 -6.528 0.243
-5.459 -6.415 0.958
-6.281 -6.528 0.243
-6.281 -6.528 0.243
-5.459 -6.415 0.958
-5.459 -6.415 0.958
-6.557 -6.799 0.235
-6.557 -6.799 0.235
-5.613 -6.367 0.744
-5.463 -6.182 0.719
-6.557 -6.799 0.235
-5.459 -6.415 0.958
-6.281 -6.528 0.243
-5.289 -6.092 0.804
-4.883 -5.562 0.675
-6.281 -6.249 -0.028
-6.556 -6.799 0.235
-5.550 -6.371 0.811
-6.556 -6.799 0.235
-6.281 -6.528 0.243
-6.271 -6.649 0.378
-6.256 -6.527 0.267
-6.556 -6.799 0.235
-5.459 -6.415 0.958
-6.557 -6.799 0.235
-6.557 -6.799 0.235
-6.557 -6.799 0.235
-6.557 -6.799 0.235
-6.557 -6.799 0.235
-6.467 -6.147 -0.316
-6.467 -6.147 -0.316
-6.557 -6.799 0.235
-6.557 -6.799 0.235
-6.557 -6.799 0.235
-6.557 -6.799 0.235
-4.829 -5.443 0.615
-6.281 -6.528 0.243
-6.556 -6.799 0.235
-6.281 -6.250 -0.028
-5.613 -6.367 0.744
-6.271 -6.649 0.378
-6.281 -6.528 0.243
-5.459 -6.415 0.958
-6.422 -6.814 0.384
-6.281 -6.528 0.243
-6.271 -6.649 0.378
-6.271 -6.649 0.378
-6.281 -6.528 0.243
-5.459 -6.415 0.958
-5.323 -6.103 0.781
-5.459 -6.415 0.958
-6.467 -6.147 -0.316
-4.829 -5.443 0.615
-5.459 -6.415 0.958
-6.557 -6.799 0.235
-5.459 -6.415 0.958
-6.281 -6.528 0.243
-6.281 -6.528 0.243
-6.556 -6.799 0.235
-5.323 -6.103 0.781
-5.323 -6.103 0.781
-6.556 -6.799 0.235
-6.281 -6.528 0.243
-6.556 -6.799 0.235
-4.883 -5.562 0.675
-6.422 -6.814 0.384
-6.556 -6.799 0.235
-6.556 -6.799 0.235
-6.281 -6.528 0.243
-6.281 -6.249 -0.029
-6.281 -6.528 0.243
-6.467 -6.147 -0.316
-5.463 -6.182 0.720
-6.556 -6.799 0.235
-6.324 -6.205 -0.117
-4.883 -5.562 0.675
-6.556 -6.799 0.235
-6.281 -6.528 0.243
-6.556 -6.799 0.235
-6.271 -6.649 0.378
-5.459 -6.415 0.958
-5.391 -6.102 0.713
-5.459 -6.415 0.958
-5.459 -6.415 0.958
-4.883 -5.562 0.675
-6.557 -6.799 0.235
-6.271 -6.649 0.378
-6.281 -6.249 -0.028
-6.557 -6.799 0.235
-6.557 -6.799 0.235
-6.325 -6.205 -0.117
-6.467 -6.147 -0.316
-6.557 -6.799 0.235
-6.281 -6.528 0.243
-4.883 -5.562 0.675
-6.324 -6.205 -0.117
-6.281 -6.528 0.243
-6.422 -6.814 0.384
-6.281 -6.528 0.243
-6.324 -6.205 -0.117
-6.556 -6.799 0.235
-6.556 -6.799 0.235
-6.281 -6.528 0.243
-6.281 -6.528 0.243
-6.119 -6.290 0.174
-4.829 -5.443 0.615
-6.238 -6.247 0.012
-6.467 -6.147 -0.316
-6.295 -5.987 -0.304
-6.467 -6.147 -0.316
-6.556 -6.799 0.235
-6.467 -6.147 -0.316
-5.459 -6.415 0.958
-6.422 -6.814 0.384
-6.325 -6.205 -0.117
-6.557 -6.799 0.235
-6.271 -6.649 0.378
-5.397 -6.164 0.768
-6.281 -6.528 0.243
-6.467 -6.147 -0.316
-6.271 -6.649 0.378
-6.422 -6.814 0.384
-6.324 -6.205 -0.117
-6.238 -6.247 0.012
-6.256 -6.527 0.267
-6.119 -6.290 0.174
-6.324 -6.205 -0.117
-6.422 -6.814 0.384
-6.359 -6.520 0.158
-6.422 -6.814 0.384
-6.422 -6.814 0.384
-5.463 -6.182 0.720
-4.658 -5.362 0.700
-6.119 -6.290 0.174
-5.459 -6.415 0.958
-6.119 -6.290 0.174
-6.241 -6.267 0.030
-6.281 -6.528 0.243
-6.556 -6.799 0.235
-6.324 -6.205 -0.117
-6.241 -6.267 0.030
-6.281 -6.528 0.243
-5.323 -6.103 0.781
-5.323 -6.103 0.781
-6.324 -6.205 -0.117
-6.467 -6.147 -0.316
-6.324 -6.205 -0.117
-6.324 -6.205 -0.117
-6.324 -6.205 -0.117
-6.467 -6.147 -0.316
-6.422 -6.814 0.384
-6.324 -6.205 -0.117
-6.256 -6.110 -0.143
-4.829 -5.443 0.615
-4.829 -5.443 0.615
-6.258 -6.132 -0.124
-6.256 -6.110 -0.143
-6.238 -6.247 0.012
-6.324 -6.205 -0.117
-6.058 -6.464 0.408
-6.119 -6.290 0.174
-6.556 -6.799 0.235
-6.238 -6.247 0.012
-6.271 -6.649 0.378
-6.556 -6.799 0.235
-6.324 -6.205 -0.117
-4.829 -5.443 0.615
-6.241 -6.267 0.030
-6.281 -6.528 0.243
-6.324 -6.205 -0.117
-6.238 -6.247 0.012
-5.677 -5.709 0.034
-6.241 -6.267 0.030
-6.295 -5.987 -0.304
-6.467 -6.147 -0.316
-6.238 -6.247 0.012
-6.238 -6.247 0.012
-6.467 -6.147 -0.316
-6.281 -6.247 -0.031
-6.256 -6.527 0.267
-6.271 -6.649 0.378
-5.459 -6.415 0.958
-6.281 -6.249 -0.029
-5.397 -6.164 0.768
-6.238 -6.247 0.012
-6.241 -6.267 0.030
-6.241 -6.267 0.030
-6.132 -6.641 0.508
-6.325 -6.205 -0.117
-6.132 -6.641 0.508
-5.459 -6.415 0.958
-6.238 -6.247 0.012
-6.325 -6.205 -0.117
-6.467 -6.147 -0.316
-6.467 -6.147 -0.316
-6.467 -6.147 -0.316
-6.059 -6.464 0.408
-4.830 -5.443 0.615
-4.883 -5.562 0.675
-6.281 -6.528 0.243
-5.459 -6.415 0.958
-5.459 -6.415 0.958
-6.241 -6.267 0.030
-6.241 -6.267 0.030
-6.422 -6.814 0.384
-5.204 -5.137 -0.065
-5.532 -6.371 0.829
-6.557 -6.799 0.235
-4.883 -5.562 0.675
-6.241 -6.267 0.030
-4.829 -5.443 0.615
-6.325 -6.205 -0.117
-6.059 -6.464 0.408
-6.238 -6.247 0.012
-6.256 -6.527 0.267
-6.238 -6.247 0.012
-6.557 -6.799 0.235
-6.325 -6.205 -0.117
-5.323 -6.103 0.781
-6.281 -6.528 0.243
-6.467 -6.147 -0.316
-4.829 -5.443 0.615
-6.324 -6.205 -0.117
-6.256 -6.527 0.267
-6.467 -6.147 -0.316
-6.238 -6.247 0.012
-6.281 -6.528 0.243
-6.556 -6.799 0.235
-6.556 -6.799 0.235
-6.238 -6.247 0.012
-6.556 -6.799 0.235
-6.119 -6.290 0.174
-5.613 -6.367 0.744
-6.059 -6.464 0.408
-6.059 -6.464 0.408
-6.556 -6.799 0.235
-6.320 -6.205 -0.112
-4.596 -4.180 -0.413
-6.235 -6.248 0.015
-6.113 -6.656 0.543
-4.816 -5.447 0.632
-6.114 -6.290 0.179
-6.114 -6.290 0.179
-6.466 -6.147 -0.315
-6.420 -6.826 0.398
-6.237 -6.247 0.013
-5.451 -6.420 0.970
-6.402 -6.825 0.415
-6.323 -6.205 -0.114
-6.359 -6.520 0.157
-6.467 -6.147 -0.316
-6.281 -6.247 -0.031
-6.367 -5.066 -1.300
-6.239 -6.247 0.012
-6.282 -6.249 -0.030
-6.282 -6.248 -0.030
-6.467 -6.147 -0.316
-6.239 -6.247 0.012
-6.325 -6.205 -0.117
-6.557 -6.799 0.234
-6.165 -5.047 -1.115
-6.423 -6.814 0.383
-6.467 -6.147 -0.316
-5.684 -5.510 -0.175
-6.239 -6.247 0.011
-6.239 -6.247 0.011
-6.423 -6.814 0.383
-6.120 -6.290 0.173
-6.120 -6.290 0.173
-6.423 -6.814 0.383
-5.397 -6.164 0.768
-6.467 -6.147 -0.316
-4.660 -5.362 0.698
-6.325 -6.205 -0.117
-6.325 -6.205 -0.117
-6.256 -6.110 -0.143
-6.325 -6.205 -0.117
-6.325 -6.205 -0.117
-6.059 -6.464 0.407
-6.258 -6.132 -0.124
-6.423 -6.814 0.383
-6.467 -6.147 -0.316
-5.397 -6.164 0.768
-6.282 -6.528 0.243
-4.833 -5.443 0.612
-6.059 -6.464 0.407
-5.459 -6.415 0.958
-4.833 -5.443 0.612
-4.833 -5.443 0.612
-6.059 -6.464 0.407
-6.101 -6.208 0.110
-6.325 -6.205 -0.117
-6.467 -6.147 -0.316
-6.165 -5.047 -1.115
-6.423 -6.814 0.383
-6.239 -6.247 0.011
-6.423 -6.814 0.383
-5.488 -6.106 0.620
-6.466 -6.147 -0.315
-5.049 -4.958 -0.091
-6.133 -6.641 0.507
-6.059 -6.464 0.407
-5.677 -5.709 0.034
-4.833 -5.443 0.611
-6.239 -6.247 0.012
-6.276 -6.247 -0.025
-6.557 -6.799 0.234
-6.256 -6.110 -0.143
-6.423 -6.814 0.383
-4.833 -5.443 0.611
-6.133 -6.641 0.507
-6.557 -6.799 0.234
-6.133 -6.641 0.507
-6.325 -6.205 -0.117
-6.282 -6.528 0.242
-5.216 -5.138 -0.076
-6.165 -5.047 -1.115
-6.241 -6.267 0.029
-6.557 -6.799 0.234
-6.256 -6.110 -0.143
-6.367 -5.066 -1.300
-4.885 -5.562 0.673
-5.441 -6.410 0.970
-6.006 -4.982 -1.023
-4.598 -4.179 -0.415
-4.598 -4.179 -0.415
-4.833 -5.443 0.611
-6.466 -6.147 -0.315
-6.120 -6.290 0.173
-4.660 -5.362 0.697
-6.239 -6.247 0.012
-4.744 -5.455 0.711
-4.886 -5.562 0.673
-6.120 -6.290 0.173
-6.241 -6.267 0.029
-5.460 -6.415 0.957
-6.325 -6.205 -0.117
-6.241 -6.267 0.029
-6.325 -6.205 -0.117
-6.296 -5.987 -0.304
-5.532 -6.371 0.829
-6.325 -6.205 -0.117
-6.325 -6.205 -0.117
-6.466 -6.147 -0.315
-6.272 -6.649 0.377
-6.239 -6.247 0.012
-6.059 -6.464 0.407
-6.325 -6.205 -0.117
-6.059 -6.464 0.407
-5.460 -6.415 0.957
-4.598 -4.011 -0.583
-4.885 -5.562 0.673
-4.833 -5.443 0.612
-6.239 -6.247 0.012
-6.367 -5.066 -1.300
-6.466 -6.147 -0.315
-6.006 -4.982 -1.023
-3.890 -4.326 0.440
-3.890 -4.326 0.440
-6.165 -5.047 -1.115
-6.423 -6.814 0.383
-5.460 -6.415 0.957
-5.460 -6.415 0.957
-5.216 -5.138 -0.076
-5.961 -5.786 -0.172
-6.295 -5.987 -0.304
-6.295 -5.987 -0.304
-4.379 -4.599 0.157
-6.239 -6.247 0.012
-3.892 -4.325 0.437
-6.239 -6.247 0.012
-4.872 -5.564 0.689
-5.441 -6.410 0.970
-5.441 -6.410 0.970
-5.441 -6.410 0.970
-6.423 -6.814 0.383
-6.006 -4.982 -1.023
-6.324 -6.205 -0.116
-6.466 -6.147 -0.315
-3.890 -4.326 0.440
-3.890 -4.326 0.440
-3.890 -4.326 0.440
-6.133 -6.641 0.508
-6.006 -4.982 -1.023
-6.165 -5.047 -1.115
-6.466 -6.147 -0.315
-3.892 -4.325 0.437
-4.885 -5.562 0.673
-5.302 -5.260 -0.043
-6.059 -6.464 0.407
-5.398 -6.164 0.767
-6.239 -6.247 0.012
-3.824 -4.137 0.317
-5.216 -5.138 -0.076
-6.241 -6.267 0.029
-4.009 -4.405 0.400
-3.824 -4.137 0.317
-6.325 -6.205 -0.117
-4.833 -5.443 0.611
-6.239 -6.247 0.012
-3.892 -4.325 0.437
-3.906 -4.283 0.380
-5.383 -6.042 0.662
-6.272 -6.649 0.377
-6.367 -5.066 -1.300
-6.165 -5.047 -1.115
-5.460 -6.415 0.957
-3.892 -4.325 0.437
-6.006 -4.982 -1.023
-5.048 -4.958 -0.089
-5.391 -6.116 0.727
-6.422 -6.814 0.383
-6.241 -6.267 0.030
-5.348 -5.278 -0.071
-6.241 -6.267 0.030
-6.367 -5.066 -1.300
-6.367 -5.066 -1.300
-5.355 -5.276 -0.079
-3.891 -4.325 0.438
-3.891 -4.325 0.438
-6.059 -6.464 0.407
-6.059 -6.464 0.407
-6.458 -6.147 -0.307
-4.606 -4.192 -0.410
-6.165 -5.047 -1.115
-3.824 -4.137 0.317
-6.239 -6.247 0.012
-6.423 -6.814 0.383
-5.290 -6.092 0.803
-4.885 -5.562 0.673
-6.325 -6.205 -0.117
-6.239 -6.247 0.012
-6.256 -6.110 -0.143
-4.833 -5.443 0.611
-5.460 -6.415 0.957
-6.466 -6.147 -0.315
-6.367 -5.066 -1.300
-6.239 -6.247 0.012
-6.295 -5.987 -0.304
-3.292 -4.160 0.856
-6.133 -6.641 0.507
-3.891 -4.325 0.438
-6.239 -6.247 0.012
-5.460 -6.415 0.957
-6.295 -5.987 -0.304
-6.295 -5.987 -0.304
-6.241 -6.267 0.029
-6.239 -6.247 0.012
-5.919 -5.992 0.078
-3.891 -4.325 0.438
-6.239 -6.247 0.012
-6.239 -6.247 0.012
-6.466 -6.147 -0.315
-6.239 -6.247 0.012
-4.872 -5.564 0.689
-4.744 -5.455 0.712
-4.744 -5.455 0.712
-6.367 -5.066 -1.300
-5.215 -5.138 -0.074
-6.367 -5.066 -1.300
-6.367 -5.066 -1.300
-6.241 -6.267 0.029
-4.660 -5.362 0.698
-6.325 -6.205 -0.117
-5.215 -5.138 -0.074
-6.367 -5.066 -1.300
-3.824 -4.137 0.317
-6.006 -4.982 -1.023
-6.272 -6.649 0.378
-4.884 -5.562 0.675
-4.745 -5.455 0.712
-3.890 -4.326 0.440
-6.367 -5.066 -1.300
-6.241 -6.267 0.029
-6.258 -6.132 -0.123
-3.891 -4.325 0.438
-4.598 -4.011 -0.583
-4.833 -5.443 0.612
-4.820 -4.784 -0.037
-6.239 -6.247 0.012
-3.846 -4.132 0.290
-6.367 -5.066 -1.300
-6.257 -6.527 0.266
-3.985 -4.373 0.392
-6.367 -5.066 -1.300
-6.295 -5.987 -0.304
-3.845 -4.133 0.291
-6.367 -5.066 -1.300
-5.045 -4.958 -0.087
-5.391 -6.165 0.775
-6.235 -6.248 0.015
-3.823 -4.138 0.318
-6.398 -6.826 0.420
-3.890 -4.326 0.439
-4.721 -4.275 -0.443
-6.230 -6.537 0.303
-6.367 -5.066 -1.300
-4.006 -4.405 0.403
-3.896 -4.283 0.391
-4.653 -5.370 0.714
-6.235 -6.247 0.015
-5.045 -4.958 -0.087
-5.045 -4.958 -0.087
-6.458 -6.147 -0.307
-5.391 -6.165 0.775
-4.695 -4.236 -0.455
-5.423 -6.418 0.996
-6.165 -5.047 -1.114
-6.165 -5.047 -1.114
-6.367 -5.066 -1.300
-6.165 -5.047 -1.114
-7.086 -6.906 -0.180
-6.005 -4.981 -1.022
-6.367 -5.066 -1.300
-6.165 -5.047 -1.114
-6.398 -6.826 0.420
-5.356 -5.276 -0.080
-6.466 -6.147 -0.315
-6.239 -6.268 0.033
-3.890 -4.326 0.439
-6.320 -6.205 -0.112
-6.466 -6.147 -0.315
-6.320 -6.205 -0.112
-6.367 -5.066 -1.300
-6.005 -4.981 -1.022
-5.620 -5.465 -0.151
-5.487 -6.107 0.621
-4.606 -4.193 -0.409
-4.008 -4.405 0.401
-6.237 -6.535 0.295
-6.237 -6.247 0.014
-6.237 -6.247 0.014
-6.164 -5.047 -1.114
-6.237 -6.247 0.014
-6.237 -6.247 0.014
-6.240 -6.268 0.031
-5.433 -6.415 0.983
-5.356 -5.276 -0.080
-5.216 -5.138 -0.075
-4.817 -5.447 0.631
-4.696 -4.236 -0.456
-3.846 -4.132 0.291
-6.322 -6.205 -0.114
-6.366 -5.066 -1.299
-6.005 -4.982 -1.021
-3.822 -4.138 0.320
-6.240 -6.268 0.031
-6.366 -5.066 -1.299
-6.366 -5.066 -1.299
-4.696 -4.237 -0.456
-4.206 -4.434 0.231
-5.452 -6.420 0.969
-6.366 -5.066 -1.299
-6.005 -4.982 -1.021
-5.677 -5.710 0.035
-5.433 -6.415 0.983
-5.048 -4.958 -0.089
-3.844 -4.133 0.292
-3.844 -4.133 0.292
-3.889 -4.326 0.441
-5.348 -5.278 -0.070
-4.864 -5.569 0.701
-6.055 -6.465 0.412
-5.385 -6.116 0.733
-3.844 -4.133 0.292
-6.322 -6.205 -0.114
-6.322 -6.205 -0.114
-6.237 -6.248 0.014
-6.458 -6.147 -0.307
-6.237 -6.248 0.014
-4.005 -4.406 0.404
-6.237 -6.248 0.014
-6.240 -6.268 0.031
-6.055 -6.465 0.412
-5.433 -6.415 0.983
-3.844 -4.133 0.292
-6.237 -6.248 0.014
-3.889 -4.326 0.441
-6.164 -5.047 -1.114
-6.005 -4.982 -1.021
-6.005 -4.982 -1.021
-6.164 -5.047 -1.114
-6.237 -6.247 0.014
-4.722 -4.275 -0.444
-4.696 -4.236 -0.456
-6.322 -6.205 -0.114
-6.164 -5.047 -1.114
-5.433 -6.415 0.983
-4.008 -4.405 0.401
-3.846 -4.132 0.291
-4.817 -5.447 0.631
-6.322 -6.205 -0.114
-6.005 -4.982 -1.021
-6.005 -4.982 -1.021
-3.822 -4.138 0.320
-4.696 -4.236 -0.456
-3.823 -4.137 0.318
-6.237 -6.247 0.014
-5.117 -6.014 0.898
-5.683 -5.510 -0.174
-4.206 -4.434 0.231
-6.240 -6.268 0.031
-6.240 -6.268 0.031
-6.237 -6.247 0.014
-6.322 -6.205 -0.114
-5.390 -6.116 0.728
-6.237 -6.247 0.014
-6.237 -6.247 0.014
-6.237 -6.247 0.014
-6.466 -6.147 -0.315
-6.296 -5.987 -0.305
-5.452 -6.420 0.969
-6.237 -6.247 0.014
-6.237 -6.247 0.014
-5.356 -5.276 -0.080
-6.466 -6.147 -0.315
-6.240 -6.268 0.031
-6.163 -6.534 0.368
-6.005 -4.982 -1.021
-6.402 -6.825 0.415
-6.466 -6.147 -0.315
-6.296 -5.987 -0.305
-6.322 -6.205 -0.114
-6.322 -6.205 -0.114
-6.466 -6.147 -0.315
-6.237 -6.248 0.014
-6.402 -6.825 0.415
-5.320 -5.266 -0.055
-4.696 -4.237 -0.456
-4.206 -4.434 0.231
-6.402 -6.825 0.415
-6.005 -4.982 -1.021
-6.005 -4.982 -1.021
-6.055 -6.465 0.412
-5.620 -5.465 -0.151
-6.237 -6.248 0.014
-6.402 -6.825 0.415
-6.237 -6.248 0.014
-3.822 -4.138 0.320
-5.433 -6.415 0.983
-3.983 -4.374 0.395
-6.322 -6.205 -0.114
-6.240 -6.268 0.031
-4.817 -5.447 0.632
-6.240 -6.268 0.031
-6.240 -6.268 0.031
-5.048 -4.958 -0.089
-4.794 -4.834 0.041
-5.385 -6.116 0.733
-3.844 -4.133 0.292
-4.005 -4.406 0.404
-6.237 -6.248 0.014
-4.864 -5.569 0.701
-4.864 -5.569 0.701
-3.844 -4.133 0.292
-6.296 -5.987 -0.305
-4.205 -4.434 0.234
-6.366 -5.066 -1.299
-6.402 -6.825 0.415
-4.820 -4.784 -0.037
-6.237 -6.535 0.295
-3.890 -4.326 0.439
-6.322 -6.205 -0.114
-6.055 -6.465 0.412
-5.452 -6.420 0.969
-6.237 -6.247 0.014
-3.823 -4.138 0.318
-3.823 -4.138 0.318
-6.322 -6.205 -0.114
-3.823 -4.138 0.318
-5.618 -5.465 -0.149
-3.985 -4.374 0.393
-6.237 -6.535 0.294
-5.354 -5.276 -0.078
-6.296 -5.987 -0.305
-4.007 -4.405 0.402
-6.322 -6.205 -0.114
-6.237 -6.247 0.014
-4.168 -4.410 0.245
-6.402 -6.825 0.415
-5.620 -5.465 -0.152
-4.817 -5.447 0.631
-4.820 -4.784 -0.037
-4.007 -4.405 0.402
-4.168 -4.410 0.245
-3.845 -4.133 0.291
-6.366 -5.066 -1.299
-3.890 -4.326 0.439
-3.845 -4.133 0.291
-6.237 -6.247 0.014
-5.433 -6.415 0.983
-5.672 -5.524 -0.147
-6.322 -6.205 -0.114
-6.466 -6.147 -0.315
-6.118 -6.655 0.537
-3.823 -4.138 0.318
-3.845 -4.133 0.291
-3.984 -4.274 0.293
-3.985 -4.374 0.393
-4.007 -4.405 0.402
-3.985 -4.374 0.393
-3.985 -4.374 0.393
-4.820 -4.784 -0.037
-6.118 -6.655 0.537
-4.817 -5.447 0.631
-6.005 -4.982 -1.021
-3.844 -4.133 0.292
-3.822 -4.138 0.320
-3.906 -4.279 0.377
-6.237 -6.248 0.014
-3.983 -4.374 0.395
-6.466 -6.147 -0.315
-6.402 -6.825 0.415
-6.466 -6.147 -0.315
-3.844 -4.133 0.292
-5.433 -6.415 0.983
-6.466 -6.147 -0.315
-6.237 -6.248 0.014
-5.433 -6.415 0.983
-5.315 -6.106 0.792
-4.653 -5.370 0.714
-3.983 -4.274 0.295
-3.983 -4.274 0.295
-3.844 -4.133 0.292
-5.425 -6.114 0.691
-6.237 -6.248 0.014
-6.117 -6.655 0.537
-5.048 -4.958 -0.089
-6.402 -6.825 0.415
-4.005 -4.406 0.404
-6.055 -6.465 0.412
-3.889 -4.326 0.441
-3.886 -4.325 0.443
-4.813 -5.447 0.635
-6.188 -6.536 0.344
-6.237 -6.247 0.014
-4.863 -5.569 0.702
-4.814 -5.447 0.634
-6.116 -6.290 0.177
-6.367 -5.066 -1.300
-4.817 -5.447 0.632
-6.237 -6.247 0.014
-4.817 -5.447 0.632
-5.432 -6.415 0.984
-6.240 -6.268 0.031
-4.007 -4.405 0.402
-3.985 -4.374 0.393
-4.007 -4.405 0.402
-6.402 -6.825 0.415
-6.237 -6.247 0.013
-5.366 -6.120 0.756
-5.355 -5.276 -0.079
-3.994 -4.411 0.420
-5.211 -5.157 -0.052
-5.432 -6.415 0.984
-6.322 -6.205 -0.114
-6.237 -6.247 0.014
-5.215 -5.138 -0.075
-6.237 -6.247 0.014
-5.355 -5.276 -0.079
-5.432 -6.415 0.984
-6.237 -6.247 0.014
-4.688 -5.500 0.811
-3.985 -4.374 0.393
-6.458 -6.147 -0.307
-6.458 -6.147 -0.307
-5.432 -6.415 0.984
-4.820 -4.784 -0.036
-5.215 -5.138 -0.075
-3.985 -4.374 0.393
-6.322 -6.205 -0.114
-4.169 -4.410 0.245
-5.432 -6.415 0.984
-6.402 -6.825 0.415
-3.985 -4.374 0.393
-3.823 -4.138 0.318
-4.730 -5.459 0.731
-4.007 -4.405 0.402
-3.846 -4.133 0.291
-6.237 -6.247 0.014
-5.215 -5.138 -0.075
-6.237 -6.247 0.013
-5.432 -6.415 0.984
-5.432 -6.415 0.984
-6.402 -6.825 0.415
-6.236 -6.535 0.295
-3.890 -4.326 0.439
-6.402 -6.825 0.415
-6.296 -5.987 -0.305
-5.451 -6.420 0.970
-5.487 -6.107 0.621
-3.823 -4.138 0.318
-4.391 -4.670 0.283
-5.393 -6.165 0.772
-4.687 -5.503 0.815
-6.322 -6.205 -0.114
-3.984 -4.274 0.293
-5.354 -5.276 -0.078
-4.817 -5.447 0.631
-4.817 -5.447 0.631
-6.322 -6.205 -0.114
-6.325 -6.206 -0.116
-4.007 -4.405 0.402
-3.985 -4.374 0.393
-5.048 -4.958 -0.089
-5.048 -4.958 -0.089
-4.687 -5.502 0.814
-5.215 -5.138 -0.074
-6.237 -6.535 0.295
-3.845 -4.133 0.291
-6.402 -6.825 0.415
-4.206 -4.434 0.232
-5.433 -6.415 0.983
-4.007 -4.405 0.402
-6.290 -6.844 0.548
-4.817 -5.447 0.631
-5.433 -6.415 0.983
-3.823 -4.138 0.318
-5.215 -5.138 -0.074
-3.823 -4.138 0.318
-4.007 -4.405 0.402
-3.985 -4.374 0.393
-6.237 -6.535 0.295
-6.322 -6.205 -0.114
-5.354 -5.276 -0.078
-5.433 -6.415 0.983
-4.007 -4.405 0.402
-5.433 -6.415 0.983
-5.354 -5.276 -0.078
-4.007 -4.405 0.402
-3.845 -4.133 0.291
-6.466 -6.147 -0.315
-5.433 -6.415 0.983
-4.865 -5.569 0.699
-4.817 -5.447 0.631
-5.433 -6.415 0.983
-3.823 -4.138 0.318
-4.817 -5.447 0.631
-6.458 -6.147 -0.307
-5.354 -5.276 -0.078
-4.654 -5.370 0.713
-6.240 -6.268 0.031
-4.817 -5.447 0.631
-4.731 -5.460 0.730
-6.116 -6.290 0.176
-4.865 -5.569 0.699
-5.345 -5.276 -0.069
-5.354 -5.276 -0.078
-5.384 -6.116 0.734
-5.048 -4.958 -0.089
-5.049 -4.958 -0.091
-5.433 -6.415 0.983
-5.354 -5.276 -0.078
-3.985 -4.374 0.393
-5.433 -6.415 0.983
-6.402 -6.825 0.415
-4.007 -4.405 0.402
-6.163 -6.534 0.368
-3.909 -4.273 0.367
-4.579 -4.691 0.088
-5.215 -5.138 -0.074
-6.237 -6.247 0.014
-3.984 -4.274 0.293
-5.354 -5.276 -0.078
-6.296 -5.987 -0.305
-5.390 -6.116 0.728
-5.215 -5.138 -0.074
-4.820 -4.784 -0.037
-6.322 -6.205 -0.114
-4.817 -5.447 0.631
-5.433 -6.415 0.983
-3.985 -4.374 0.393
-5.354 -5.276 -0.078
-3.984 -4.274 0.293
-5.354 -5.276 -0.078
-4.687 -5.502 0.814
-4.817 -5.447 0.631
-6.237 -6.248 0.014
-6.237 -6.535 0.295
-5.433 -6.415 0.983
-5.384 -6.116 0.734
-5.433 -6.415 0.983
-4.817 -5.447 0.631
-6.237 -6.247 0.014
-5.215 -5.138 -0.074
-5.354 -5.276 -0.078
-4.784 -4.782 -0.003
-5.433 -6.415 0.982
-5.433 -6.414 0.982
-5.433 -6.415 0.982
-5.360 -5.276 -0.084
-4.818 -5.447 0.630
-6.237 -6.535 0.294
-5.051 -4.958 -0.093
-5.433 -6.415 0.982
-6.296 -5.987 -0.305
-6.467 -6.147 -0.315
-5.078 -6.015 0.937
-5.360 -5.276 -0.084
-4.818 -5.447 0.630
-6.237 -6.247 0.014
-6.402 -6.825 0.414
-4.212 -4.434 0.225
-5.220 -5.138 -0.079
-5.220 -5.137 -0.079
-5.360 -5.276 -0.084
-3.990 -4.373 0.386
-6.055 -6.465 0.412
-5.050 -4.958 -0.092
-5.050 -4.958 -0.092
-4.212 -4.434 0.225
-5.051 -4.958 -0.093
-5.385 -6.116 0.733
-6.291 -5.988 -0.299
-5.360 -5.276 -0.084
-4.853 -5.571 0.716
-4.688 -5.501 0.812
-5.050 -4.958 -0.092
-5.433 -6.415 0.982
-5.360 -5.276 -0.084
-5.433 -6.414 0.982
-5.050 -4.958 -0.092
-4.818 -5.447 0.630
-5.078 -6.015 0.937
-4.013 -4.405 0.396
-5.350 -5.275 -0.075
-5.433 -6.415 0.982
-5.220 -5.137 -0.079
-4.818 -5.447 0.630
-5.360 -5.276 -0.084
-5.433 -6.415 0.982
-6.237 -6.247 0.014
-5.051 -4.958 -0.093
-5.385 -6.116 0.733
-5.433 -6.415 0.982
-5.360 -5.276 -0.084
-5.360 -5.276 -0.084
-5.360 -5.276 -0.084
-4.794 -4.834 0.041
-5.385 -6.116 0.733
-5.050 -4.958 -0.092
-6.237 -6.535 0.294
-4.818 -5.447 0.630
-6.322 -6.205 -0.114
-6.467 -6.147 -0.315
-4.867 -5.569 0.698
-4.731 -5.459 0.729
-5.360 -5.276 -0.084
-4.853 -5.571 0.716
-4.818 -5.447 0.630
-5.360 -5.276 -0.084
-5.050 -4.958 -0.092
-4.818 -5.447 0.630
-5.050 -4.958 -0.092
-5.220 -5.137 -0.079
-5.360 -5.276 -0.084
-5.220 -5.137 -0.079
-5.220 -5.137 -0.079
-5.385 -6.116 0.733
-5.360 -5.276 -0.084
-4.853 -5.571 0.716
-5.220 -5.137 -0.079
-3.990 -4.274 0.287
-5.078 -6.015 0.937
-5.433 -6.415 0.982
-3.990 -4.373 0.386
-5.360 -5.276 -0.084
-4.655 -5.370 0.711
-5.517 -6.373 0.846
-5.360 -5.276 -0.084
-6.055 -6.465 0.412
-5.385 -6.116 0.733
-6.163 -6.534 0.368
-4.733 -5.460 0.729
-5.360 -5.276 -0.084
-5.390 -6.117 0.728
-5.360 -5.276 -0.084
-4.853 -5.571 0.716
-5.360 -5.276 -0.084
-5.360 -5.276 -0.084
-6.466 -6.147 -0.315
-5.362 -6.122 0.762
-5.960 -6.665 0.704
-6.397 -6.826 0.420
-6.226 -6.227 0.003
-5.355 -5.273 -0.082
-5.046 -6.025 0.980
-4.849 -5.571 0.720
-5.355 -5.273 -0.082
-4.863 -5.568 0.702
-4.813 -5.447 0.635
-5.047 -4.958 -0.088
-6.230 -6.537 0.303
-4.002 -4.404 0.406
-5.355 -5.273 -0.082
-5.355 -5.273 -0.082
-5.355 -5.273 -0.082
-4.849 -5.571 0.720
-4.813 -5.447 0.635
-4.819 -4.784 -0.036
-5.362 -6.122 0.762
-6.230 -6.537 0.303
-5.355 -5.273 -0.082
-5.047 -4.958 -0.088
-5.345 -5.272 -0.073
-5.355 -5.273 -0.082
-6.458 -6.147 -0.307
-6.289 -5.988 -0.298
-6.289 -5.988 -0.298
-6.458 -6.147 -0.307
-6.458 -6.147 -0.307
-6.289 -5.988 -0.298
-6.458 -6.147 -0.307
-6.458 -6.147 -0.307
-6.458 -6.147 -0.307
-6.364 -5.987 -0.373
-6.292 -5.988 -0.301
-6.292 -5.988 -0.301
-6.455 -6.148 -0.303
-6.455 -6.148 -0.303
-6.287 -5.988 -0.295
-6.455 -6.148 -0.303
-6.292 -5.988 -0.301
-6.364 -5.987 -0.373
-6.455 -6.148 -0.303
-6.510 -6.147 -0.359
-6.287 -5.988 -0.295
-5.045 -4.958 -0.086
-6.455 -6.148 -0.303
-6.455 -6.148 -0.303
-6.287 -5.988 -0.295
-6.292 -5.988 -0.301
-6.463 -6.148 -0.311
-6.287 -5.988 -0.295
-6.463 -6.148 -0.311
-6.292 -5.988 -0.301
-5.916 -5.993 0.081
-6.455 -6.148 -0.303
-6.463 -6.148 -0.311
-6.292 -5.988 -0.301
-6.463 -6.148 -0.311
-6.292 -5.988 -0.301
-6.292 -5.988 -0.301
-6.292 -5.988 -0.301
-7.300 -6.915 -0.384
-7.300 -6.915 -0.384
-6.455 -6.148 -0.303
-6.455 -6.148 -0.303
-6.293 -5.988 -0.301
-6.287 -5.988 -0.295
-6.455 -6.148 -0.303
-5.916 -5.993 0.081
-6.293 -5.988 -0.301
-6.455 -6.148 -0.303
-6.455 -6.148 -0.303
-7.199 -6.957 -0.242
-6.455 -6.148 -0.303
-6.463 -6.148 -0.311
-6.364 -5.987 -0.373
-7.199 -6.957 -0.242
-6.292 -5.988 -0.301
-6.364 -5.987 -0.373
-6.025 -6.029 0.007
-7.300 -6.915 -0.384
-7.300 -6.915 -0.384
-6.455 -6.148 -0.303
-6.455 -6.148 -0.303
-6.455 -6.148 -0.303
-6.025 -6.029 0.007
-7.296 -6.828 -0.466
-5.916 -5.993 0.081
-6.292 -5.988 -0.301
-6.287 -5.988 -0.294
-6.292 -5.988 -0.301
-7.258 -6.882 -0.375
-7.204 -6.955 -0.248
-6.293 -5.988 -0.301
-6.293 -5.988 -0.301
-7.204 -6.955 -0.248
-6.287 -5.988 -0.295
-6.464 -6.148 -0.312
-6.464 -6.148 -0.312
-6.455 -6.148 -0.304
-6.455 -6.148 -0.304
-6.287 -5.988 -0.295
-7.148 -6.901 -0.246
-6.511 -6.147 -0.361
-6.293 -5.988 -0.301
-7.148 -6.901 -0.246
-7.078 -6.907 -0.171
-6.455 -6.148 -0.304
-6.319 -6.205 -0.111
-5.045 -4.958 -0.086
-6.463 -6.148 -0.312
-6.455 -6.148 -0.304
-6.319 -6.205 -0.111
-6.511 -6.147 -0.361
-7.148 -6.901 -0.246
-6.455 -6.148 -0.304
-7.078 -6.907 -0.171
-6.319 -6.205 -0.111
-6.287 -5.988 -0.295
-6.455 -6.148 -0.304
-6.455 -6.148 -0.304
-7.203 -6.956 -0.247
-6.463 -6.148 -0.312
-6.293 -5.988 -0.301
-6.463 -6.148 -0.312
-6.293 -5.988 -0.301
-7.080 -6.907 -0.173
-6.293 -5.988 -0.301
-6.287 -5.988 -0.295
-7.203 -6.956 -0.247
-6.455 -6.148 -0.304
-7.067 -6.879 -0.188
-6.293 -5.988 -0.301
-6.293 -5.988 -0.301
-6.293 -5.988 -0.301
-6.027 -6.029 0.006
-6.455 -6.148 -0.304
-6.455 -6.148 -0.304
-6.287 -5.988 -0.295
-7.066 -6.879 -0.188
-6.455 -6.148 -0.304
-6.455 -6.148 -0.304
-6.027 -6.029 0.006
-6.511 -6.147 -0.361
-7.204 -6.956 -0.247
-6.252 -6.111 -0.138
-6.455 -6.148 -0.304
-6.463 -6.148 -0.312
-6.455 -6.148 -0.304
-7.204 -6.956 -0.247
-5.045 -4.958 -0.086
-6.455 -6.148 -0.304
-5.045 -4.958 -0.086
-6.365 -5.987 -0.374
-7.203 -6.956 -0.247
-5.355 -5.273 -0.082
-7.078 -6.908 -0.171
-6.463 -6.148 -0.312
-7.078 -6.908 -0.171
-7.203 -6.956 -0.247
-6.455 -6.148 -0.304
-6.252 -6.111 -0.138
-6.293 -5.988 -0.301
-7.305 -6.915 -0.390
-6.293 -5.988 -0.301
-7.203 -6.956 -0.247
-6.463 -6.148 -0.312
-7.203 -6.956 -0.247
-4.201 -4.433 0.235
-6.455 -6.148 -0.304
-7.203 -6.956 -0.247
-7.203 -6.956 -0.247
-7.078 -6.908 -0.171
-6.455 -6.148 -0.304
-7.078 -6.908 -0.171
-6.293 -5.988 -0.301
-6.287 -5.988 -0.295
-6.455 -6.148 -0.304
-6.455 -6.148 -0.304
-6.455 -6.148 -0.304
-6.455 -6.148 -0.304
-6.287 -5.988 -0.295
-7.203 -6.956 -0.247
-7.148 -6.901 -0.246
-6.287 -5.988 -0.295
-7.078 -6.907 -0.171
-7.203 -6.956 -0.247
-7.203 -6.956 -0.247
-7.111 -6.879 -0.233
-7.078 -6.907 -0.171
-7.080 -6.907 -0.173
-6.287 -5.988 -0.295
-7.203 -6.955 -0.247
-6.287 -5.988 -0.295
-6.287 -5.988 -0.295
-6.455 -6.148 -0.304
-5.615 -5.465 -0.146
-6.365 -5.987 -0.374
-6.365 -5.987 -0.374
-6.455 -6.148 -0.304
-6.463 -6.148 -0.312
-7.148 -6.901 -0.246
-6.455 -6.148 -0.304
-7.203 -6.956 -0.247
-6.287 -5.988 -0.295
-7.203 -6.956 -0.247
-7.067 -6.879 -0.188
-6.463 -6.148 -0.312
-7.078 -6.907 -0.171
-6.293 -5.988 -0.301
-7.305 -6.915 -0.390
-7.203 -6.956 -0.247
-6.455 -6.148 -0.304
-5.615 -5.465 -0.146
-5.666 -5.524 -0.141
-6.455 -6.148 -0.304
-6.455 -6.148 -0.304
-4.818 -4.784 -0.035
-6.455 -6.148 -0.304
-4.201 -4.433 0.235
-7.203 -6.956 -0.247
-5.670 -5.524 -0.144
-6.455 -6.148 -0.304
-7.148 -6.901 -0.246
-6.455 -6.148 -0.304
-6.252 -6.111 -0.138
-5.660 -5.510 -0.151
-7.078 -6.907 -0.171
-4.818 -4.784 -0.035
-6.287 -5.988 -0.295
-7.204 -6.956 -0.248
-5.666 -5.524 -0.141
-5.666 -5.524 -0.141
-7.078 -6.907 -0.171
-5.666 -5.524 -0.141
-6.455 -6.148 -0.304
-6.455 -6.148 -0.304
-6.455 -6.148 -0.304
-7.203 -6.956 -0.247
-6.287 -5.988 -0.295
-7.305 -6.915 -0.390
-7.305 -6.915 -0.390
-6.455 -6.148 -0.304
-6.463 -6.148 -0.312
-6.319 -6.205 -0.111
-5.618 -5.465 -0.149
-6.458 -6.147 -0.307
-7.208 -6.955 -0.252
-4.202 -4.433 0.235
-7.144 -6.902 -0.243
-7.258 -6.882 -0.375
-7.204 -6.955 -0.248
-7.204 -6.955 -0.248
-7.204 -6.955 -0.248
-5.615 -5.465 -0.146
-4.818 -4.784 -0.035
-5.615 -5.465 -0.146
-7.204 -6.955 -0.248
-6.280 -6.201 -0.076
-5.418 -5.342 -0.072
-7.078 -6.908 -0.171
-5.615 -5.465 -0.146
-7.203 -6.956 -0.247
-6.293 -5.988 -0.301
-6.511 -6.147 -0.361
-5.615 -5.465 -0.146
-7.203 -6.956 -0.247
-6.455 -6.148 -0.304
-7.203 -6.956 -0.247
-5.615 -5.465 -0.146
-5.615 -5.465 -0.146
-5.670 -5.524 -0.144
-6.456 -6.148 -0.304
-4.207 -4.433 0.229
-5.666 -5.524 -0.141
-6.287 -5.988 -0.295
-7.112 -6.879 -0.233
-6.456 -6.148 -0.304
-6.456 -6.148 -0.304
-6.456 -6.148 -0.304
-6.456 -6.148 -0.304
-6.287 -5.988 -0.296
-6.456 -6.148 -0.304
-5.615 -5.465 -0.146
-6.252 -6.111 -0.138
-5.615 -5.465 -0.146
-7.204 -6.956 -0.248
-5.047 -4.958 -0.089
-4.171 -4.409 0.242
-6.456 -6.148 -0.304
-7.204 -6.956 -0.248
-7.079 -6.907 -0.171
-6.456 -6.148 -0.304
-5.666 -5.524 -0.141
-7.305 -6.915 -0.390
-5.666 -5.524 -0.141
-4.207 -4.433 0.229
-6.456 -6.148 -0.304
-6.456 -6.148 -0.304
-7.078 -6.908 -0.171
-6.287 -5.988 -0.295
-7.148 -6.901 -0.246
-7.148 -6.901 -0.246
-6.456 -6.148 -0.304
-4.171 -4.409 0.242
-4.207 -4.433 0.229
-7.078 -6.907 -0.171
-7.203 -6.956 -0.247
-5.615 -5.465 -0.146
-6.254 -6.132 -0.120
-7.078 -6.907 -0.171
-7.148 -6.901 -0.246
-5.666 -5.524 -0.141
-5.615 -5.465 -0.146
-7.078 -6.907 -0.171
-7.078 -6.907 -0.171
-7.148 -6.902 -0.246
-4.207 -4.433 0.229
-4.207 -4.433 0.229
-7.148 -6.901 -0.246
-7.305 -6.915 -0.390
-7.203 -6.956 -0.247
-5.615 -5.465 -0.146
-5.615 -5.465 -0.146
-7.203 -6.956 -0.247
-7.148 -6.901 -0.246
-5.666 -5.524 -0.141
-6.287 -5.988 -0.296
-5.666 -5.524 -0.141
-6.456 -6.148 -0.304
-5.666 -5.524 -0.141
-5.615 -5.465 -0.146
-6.456 -6.148 -0.304
-7.078 -6.907 -0.171
-7.078 -6.907 -0.171
-6.287 -5.988 -0.296
-6.456 -6.148 -0.304
-6.456 -6.148 -0.304
-7.148 -6.901 -0.246
-3.985 -4.272 0.291
-6.287 -5.988 -0.296
-7.203 -6.956 -0.247
-5.615 -5.465 -0.146
-7.203 -6.956 -0.247
-5.047 -4.958 -0.089
-6.287 -5.988 -0.296
-5.615 -5.465 -0.146
-5.340 -5.340 0.004
-6.456 -6.148 -0.304
-5.340 -5.340 0.004
-5.615 -5.465 -0.146
-5.615 -5.465 -0.146
-6.456 -6.148 -0.304
-6.512 -6.147 -0.361
-7.067 -6.879 -0.188
-5.615 -5.465 -0.146
-5.666 -5.524 -0.141
-6.456 -6.148 -0.304
-7.078 -6.908 -0.171
-5.209 -5.133 -0.073
-5.342 -5.273 -0.070
-6.456 -6.148 -0.304
-4.820 -4.784 -0.036
-3.970 -4.261 0.296
-5.666 -5.524 -0.141
-5.342 -5.273 -0.070
-5.666 -5.524 -0.141
-7.078 -6.908 -0.171
-6.456 -6.148 -0.304
-6.456 -6.148 -0.304
-6.456 -6.148 -0.304
-5.342 -5.273 -0.070
-6.456 -6.148 -0.304
-5.209 -5.133 -0.073
-5.209 -5.133 -0.073
-6.456 -6.148 -0.304
-6.456 -6.148 -0.304
-7.078 -6.908 -0.171
-6.456 -6.148 -0.304
-5.666 -5.524 -0.141
-6.456 -6.148 -0.304
-5.666 -5.524 -0.141
-3.970 -4.262 0.296
-4.142 -4.409 0.271
-7.305 -6.915 -0.390
-5.342 -5.273 -0.070
-5.623 -5.466 -0.153
-5.209 -5.133 -0.073
-6.456 -6.148 -0.304
-6.456 -6.148 -0.304
-5.666 -5.524 -0.141
-5.209 -5.132 -0.073
-7.078 -6.908 -0.171
-7.305 -6.915 -0.390
-5.666 -5.524 -0.141
-6.456 -6.148 -0.304
-6.456 -6.148 -0.304
-6.287 -5.988 -0.295
-6.456 -6.148 -0.304
-6.287 -5.988 -0.295
-6.320 -6.205 -0.111
-6.456 -6.148 -0.304
-7.203 -6.956 -0.247
-6.456 -6.148 -0.304
-4.820 -4.784 -0.036
-6.456 -6.148 -0.304
-6.456 -6.148 -0.304
-7.204 -6.956 -0.248
-6.456 -6.148 -0.304
-6.456 -6.148 -0.304
-6.456 -6.148 -0.304
-6.456 -6.148 -0.304
-5.418 -5.342 -0.072
-5.666 -5.524 -0.141
-7.078 -6.908 -0.171
-6.456 -6.148 -0.304
-6.456 -6.148 -0.304
-5.666 -5.524 -0.141
-5.666 -5.524 -0.141
-6.456 -6.148 -0.304
-6.456 -6.148 -0.304
-4.142 -4.409 0.271
-6.456 -6.148 -0.304
-5.615 -5.465 -0.146
-6.456 -6.148 -0.304
-6.456 -6.148 -0.304
-6.287 -5.988 -0.295
-5.615 -5.465 -0.146
-4.142 -4.409 0.271
-7.305 -6.915 -0.390
-5.615 -5.465 -0.146
-6.456 -6.148 -0.304
-6.456 -6.148 -0.304
-5.670 -5.524 -0.144
-6.456 -6.148 -0.304
-5.620 -5.466 -0.151
-7.305 -6.915 -0.390
-5.615 -5.465 -0.146
-6.456 -6.148 -0.304
-7.078 -6.908 -0.171
-6.456 -6.148 -0.304
-6.456 -6.148 -0.304
-7.078 -6.908 -0.171
-4.820 -4.784 -0.036
-7.067 -6.879 -0.188
-6.456 -6.148 -0.304
-4.820 -4.784 -0.036
-6.456 -6.148 -0.304
-6.456 -6.148 -0.304
-7.078 -6.908 -0.171
-5.342 -5.273 -0.070
-5.209 -5.133 -0.073
-7.203 -6.956 -0.247
-5.209 -5.133 -0.073
-6.456 -6.148 -0.304
-5.666 -5.524 -0.141
-5.342 -5.273 -0.070
-7.078 -6.908 -0.171
-6.456 -6.148 -0.304
-6.456 -6.148 -0.304
-5.936 -5.783 -0.150
-4.177 -4.431 0.258
-6.456 -6.148 -0.304
-7.066 -6.879 -0.187
-4.820 -4.784 -0.036
-5.342 -5.273 -0.070