-13.175 -7.824 -5.361
-13.175 -7.824 -5.361
-13.175 -7.824 -5.361
-13.175 -7.824 -5.361
-10.115 -6.207 -4.012
-13.585 -7.343 -6.380
-11.074 -7.037 -4.011
-13.235 -7.435 -5.935
-13.353 -7.775 -5.586
-13.235 -7.435 -5.935
-11.824 -6.782 -5.057
-13.353 -7.775 -5.586
-13.235 -7.435 -5.935
-13.353 -7.775 -5.586
-6.196 -5.819 -0.455
-10.934 -6.821 -4.308
-13.353 -7.775 -5.586
-13.353 -7.775 -5.586
-13.353 -7.775 -5.586
-13.353 -7.775 -5.586
-10.206 -7.149 -3.238
-5.414 -4.997 -0.393
-13.353 -7.775 -5.586
-4.554 -4.744 0.219
-11.824 -6.782 -5.057
-13.353 -7.775 -5.586
-5.506 -6.243 0.730
-11.136 -4.471 -6.775
-11.118 -7.034 -4.058
-10.201 -7.150 -3.231
-5.505 -6.244 0.732
-8.276 -5.777 -2.479
-6.367 -7.154 0.816
-13.229 -7.436 -5.928
-13.348 -7.777 -5.579
-7.185 -4.728 -2.453
-8.312 -5.719 -2.573
-13.348 -7.777 -5.579
-6.196 -5.819 -0.455
-11.136 -4.471 -6.775
-11.118 -7.034 -4.058
-13.229 -7.436 -5.928
-13.348 -7.777 -5.579
-5.238 -5.262 0.043
-5.238 -5.262 0.043
-13.229 -7.436 -5.928
-13.348 -7.777 -5.579
-13.294 -7.780 -5.522
-8.335 -6.390 -2.146
-7.653 -1.743 -6.167
-10.128 -6.124 -4.001
-11.850 -6.774 -5.090
-13.253 -7.429 -5.955
-13.253 -7.429 -5.955
-13.369 -7.775 -5.603
-13.253 -7.429 -5.955
-11.850 -6.774 -5.090
-11.070 -7.039 -4.005
-13.253 -7.429 -5.955
-11.121 -7.035 -4.060
-11.138 -4.470 -6.778
-13.371 -7.774 -5.605
-11.851 -6.774 -5.092
-6.207 -5.815 -0.470
-11.851 -6.774 -5.092
-7.081 -7.117 0.059
-11.122 -7.034 -4.062
-5.824 -6.624 0.789
-13.371 -7.774 -5.605
-7.191 -4.726 -2.461
-11.138 -4.470 -6.778
-11.138 -4.470 -6.778
-13.371 -7.774 -5.605
-10.951 -6.815 -4.331
-11.122 -7.035 -4.061
-11.851 -6.774 -5.092
-10.951 -6.815 -4.331
-13.371 -7.774 -5.605
-13.371 -7.774 -5.605
-11.138 -4.470 -6.778
-13.255 -7.429 -5.957
-7.191 -4.726 -2.461
-11.138 -4.470 -6.778
-7.026 -4.773 -2.248
-10.120 -6.206 -4.019
-10.120 -6.206 -4.019
-13.255 -7.429 -5.957
-13.255 -7.429 -5.957
-6.877 -4.405 -2.480
-13.255 -7.429 -5.957
-13.371 -7.774 -5.605
-13.371 -7.774 -5.605
-6.837 -7.176 0.357
-13.371 -7.774 -5.605
-4.554 -4.743 0.219
-13.371 -7.774 -5.605
-11.123 -7.034 -4.063
-13.255 -7.429 -5.957
-13.371 -7.774 -5.605
-6.785 -7.456 0.700
-13.255 -7.429 -5.957
-4.913 -4.672 -0.211
-10.128 -6.124 -4.002
-7.191 -4.726 -2.461
-6.835 -7.177 0.360
-11.851 -6.774 -5.092
-7.822 -5.366 -2.433
-8.284 -5.771 -2.492
-11.121 -7.035 -4.060
-11.138 -4.470 -6.778
-10.719 -4.608 -6.228
-10.207 -6.195 -4.118
-13.371 -7.774 -5.606
-11.138 -4.470 -6.778
-10.120 -6.206 -4.019
-5.518 -6.240 0.715
-10.951 -6.815 -4.331
-11.122 -7.035 -4.061
-4.554 -4.743 0.218
-10.719 -4.608 -6.228
-13.256 -7.429 -5.958
-7.192 -4.726 -2.462
-11.138 -4.470 -6.778
-10.951 -6.815 -4.331
-13.255 -7.429 -5.957
-7.057 -6.013 -1.138
-11.138 -4.470 -6.778
-10.128 -6.124 -4.002
-8.106 -6.990 -1.111
-8.284 -5.771 -2.492
-10.120 -6.206 -4.019
-13.371 -7.774 -5.605
-11.123 -7.034 -4.063
-10.120 -6.206 -4.019
-10.207 -6.195 -4.118
-11.851 -6.774 -5.092
-9.348 -7.149 -2.219
-10.128 -6.123 -4.002
-11.851 -6.774 -5.092
-13.371 -7.774 -5.605
-4.554 -4.743 0.219
-13.255 -7.429 -5.957
-13.255 -7.429 -5.957
-11.138 -4.470 -6.778
-8.144 -5.265 -2.958
-4.554 -4.743 0.218
-7.892 -5.200 -3.100
-8.289 -5.768 -2.500
-7.968 -5.269 -2.685
-11.156 -4.467 -6.799
-7.077 -7.151 0.094
-6.785 -7.456 0.699
-10.122 -6.205 -4.022
-6.655 -7.630 0.977
-7.082 -7.117 0.057
-8.106 -6.990 -1.111
-11.073 -7.038 -4.008
-7.892 -5.200 -3.100
-7.983 -5.279 -2.783
-9.348 -7.149 -2.219
-10.131 -6.123 -4.005
-13.372 -7.774 -5.607
-8.289 -5.768 -2.500
-9.348 -7.149 -2.219
-10.207 -7.150 -3.237
-4.554 -4.743 0.218
-6.655 -7.630 0.977
-13.372 -7.774 -5.607
-13.257 -7.429 -5.960
-7.082 -7.117 0.057
-10.131 -6.123 -4.005
-11.157 -4.467 -6.799
-6.880 -4.404 -2.484
-11.157 -4.467 -6.799
-10.122 -6.205 -4.022
-9.348 -7.149 -2.219
-10.692 -4.657 -6.029
-7.082 -7.117 0.057
-10.123 -6.205 -4.023
-10.123 -6.205 -4.023
-8.289 -5.768 -2.500
-7.886 -7.308 -0.550
-11.157 -4.467 -6.799
-10.692 -4.657 -6.029
-6.198 -7.184 1.010
-10.123 -6.205 -4.023
-11.157 -4.467 -6.799
-7.868 -5.306 -2.538
-10.131 -6.123 -4.005
-7.968 -5.269 -2.685
-11.156 -4.467 -6.799
-7.193 -4.725 -2.464
-6.198 -7.184 1.010
-7.892 -5.200 -3.100
-11.156 -4.467 -6.799
-6.655 -7.630 0.977
-6.655 -7.630 0.977
-6.655 -7.630 0.977
-11.156 -4.467 -6.799
-8.106 -6.990 -1.111
-8.106 -6.990 -1.111
-5.520 -6.240 0.713
-10.207 -7.150 -3.237
-6.880 -7.005 0.150
-10.131 -6.123 -4.005
-8.289 -5.768 -2.500
-8.289 -5.768 -2.500
-8.106 -6.990 -1.111
-13.372 -7.774 -5.607
-6.880 -4.404 -2.484
-13.372 -7.774 -5.607
-10.207 -7.150 -3.237
-10.122 -6.205 -4.022
-8.106 -6.990 -1.111
-11.073 -7.038 -4.008
-8.289 -5.768 -2.500
-10.207 -7.150 -3.237
-6.880 -7.005 0.150
-6.880 -7.005 0.150
-10.131 -6.123 -4.005
-13.257 -7.429 -5.960
-7.082 -7.117 0.057
-8.106 -6.990 -1.111
-6.198 -7.184 1.010
-9.268 -7.650 -1.603
-8.106 -6.990 -1.111
-10.207 -7.150 -3.237
-7.968 -5.269 -2.685
-7.193 -4.725 -2.464
-7.890 -7.304 -0.559
-11.073 -7.038 -4.008
-7.077 -7.151 0.094
-7.996 -5.186 -3.220
-11.142 -4.473 -6.780
-7.068 -7.150 0.102
-8.280 -5.779 -2.480
-8.280 -5.779 -2.480
-6.601 -4.457 -2.154
-11.142 -4.473 -6.780
-6.874 -7.005 0.156
-10.731 -4.610 -6.238
-5.524 -4.513 -1.051
-7.890 -7.304 -0.560
-13.171 -7.824 -5.357
-8.059 -6.993 -1.063
-4.844 -5.542 0.727
-7.258 -7.062 -0.198
-7.023 -4.766 -2.252
-5.017 -6.359 1.334
-10.190 -7.152 -3.218
-8.059 -6.993 -1.063
-11.057 -7.040 -3.991
-11.142 -4.473 -6.780
-6.874 -7.005 0.156
-8.058 -6.993 -1.062
-6.874 -7.005 0.156
-11.057 -7.040 -3.991
-6.350 -6.726 0.408
-11.142 -4.473 -6.780
-6.922 -7.132 0.229
-8.158 -5.266 -2.972
-6.874 -7.005 0.156
-10.678 -4.661 -6.012
-6.874 -7.005 0.156
-13.063 -7.432 -5.688
-10.116 -6.125 -3.987
-7.218 -5.038 -2.167
-8.052 -5.180 -3.275
-6.170 -7.190 1.044
-6.170 -7.190 1.044
-6.350 -6.726 0.408
-6.350 -6.726 0.408
-6.874 -7.005 0.156
-11.142 -4.473 -6.780
-13.171 -7.824 -5.357
-11.142 -4.473 -6.780
-7.890 -7.304 -0.560
-6.874 -7.005 0.156
-6.874 -7.005 0.156
-10.113 -6.208 -4.010
-7.885 -5.203 -3.089
-10.113 -6.208 -4.010
-11.142 -4.473 -6.780
-6.350 -6.726 0.408
-7.257 -7.062 -0.197
-6.171 -7.190 1.044
-6.874 -7.005 0.156
-8.158 -5.266 -2.972
-6.874 -7.005 0.156
-10.115 -6.126 -3.986
-11.142 -4.473 -6.780
-10.189 -7.152 -3.217
-11.057 -7.040 -3.991
-8.039 -5.181 -3.260
-6.282 -5.670 -0.587
-11.142 -4.473 -6.780
-9.326 -7.157 -2.190
-7.885 -5.203 -3.089
-8.058 -6.993 -1.062
-7.890 -7.304 -0.560
-6.874 -7.005 0.156
-6.874 -7.005 0.156
-7.467 -8.230 0.778
-11.057 -7.040 -3.991
-11.142 -4.473 -6.780
-7.885 -5.203 -3.089
-8.158 -5.266 -2.972
-10.189 -7.152 -3.217
-6.874 -7.005 0.156
-7.976 -5.283 -2.772
-13.171 -7.824 -5.357
-10.115 -6.126 -3.986
-10.115 -6.126 -3.986
-7.890 -7.304 -0.560
-10.113 -6.208 -4.010
-7.885 -5.203 -3.089
-13.171 -7.824 -5.357
-11.057 -7.040 -3.991
-6.874 -7.005 0.156
-11.057 -7.040 -3.991
-7.885 -5.203 -3.089
-9.326 -7.157 -2.190
-13.171 -7.824 -5.357
-6.481 -7.522 1.047
-11.142 -4.473 -6.780
-10.113 -6.208 -4.010
-10.113 -6.208 -4.010
-8.039 -5.181 -3.260
-6.171 -7.190 1.044
-8.058 -6.993 -1.062
-8.280 -5.779 -2.480
-10.731 -4.610 -6.238
-5.301 -5.383 0.115
-8.280 -5.778 -2.481
-8.280 -5.778 -2.481
-8.280 -5.778 -2.481
-6.874 -7.005 0.156
-10.678 -4.661 -6.011
-8.059 -6.993 -1.063
-10.114 -6.208 -4.011
-6.170 -7.190 1.044
-4.844 -5.542 0.727
-11.142 -4.473 -6.780
-10.678 -4.661 -6.011
-9.086 -7.466 -1.604
-10.114 -6.208 -4.011
-7.898 -5.202 -3.104
-8.373 -6.335 -2.241
-11.057 -7.040 -3.992
-13.063 -7.432 -5.688
-11.142 -4.473 -6.780
-10.115 -6.126 -3.986
-9.326 -7.157 -2.190
-13.171 -7.824 -5.357
-8.058 -6.993 -1.062
-11.142 -4.473 -6.780
-7.258 -7.062 -0.198
-5.495 -6.245 0.742
-10.113 -6.208 -4.010
-13.171 -7.824 -5.357
-11.109 -7.036 -4.047
-6.874 -7.005 0.156
-6.756 -7.462 0.735
-10.678 -4.661 -6.011
-6.170 -7.190 1.044
-10.190 -7.152 -3.218
-9.326 -7.156 -2.191
-11.142 -4.473 -6.780
-11.142 -4.473 -6.780
-11.704 -6.793 -4.922
-7.512 -6.339 -1.199
-6.171 -7.190 1.044
-7.068 -7.150 0.102
-6.874 -7.005 0.156
-8.280 -5.779 -2.480
-10.115 -6.126 -3.986
-7.890 -7.304 -0.560
-6.874 -7.005 0.156
-10.115 -6.126 -3.986
-11.057 -7.040 -3.991
-8.158 -5.266 -2.972
-7.976 -5.283 -2.772
-10.113 -6.208 -4.010
-10.113 -6.208 -4.010
-9.326 -7.157 -2.190
-6.171 -7.190 1.044
-10.113 -6.208 -4.010
-7.885 -5.203 -3.089
-6.171 -7.190 1.044
-7.890 -7.304 -0.560
-8.039 -5.181 -3.260
-11.057 -7.040 -3.991
-7.886 -7.308 -0.551
-8.280 -5.779 -2.480
-9.326 -7.157 -2.190
-8.158 -5.266 -2.972
-8.316 -5.722 -2.574
-7.258 -7.062 -0.198
-9.326 -7.157 -2.190
-10.115 -6.126 -3.986
-6.874 -7.005 0.156
-13.062 -7.432 -5.687
-6.171 -7.190 1.044
-6.874 -7.005 0.156
-4.544 -4.748 0.233
-8.039 -5.181 -3.260
-6.171 -7.190 1.044
-8.058 -6.993 -1.062
-8.058 -6.993 -1.062
-10.115 -6.126 -3.986
-6.874 -7.005 0.156
-7.890 -7.304 -0.559
-8.058 -6.993 -1.062
-7.068 -7.150 0.102
-7.885 -5.203 -3.089
-7.890 -7.304 -0.560
-7.258 -7.062 -0.198
-8.058 -6.993 -1.062
-7.258 -7.062 -0.198
-7.258 -7.062 -0.198
-7.258 -7.062 -0.197
-7.890 -7.304 -0.560
-6.171 -7.190 1.044
-8.039 -5.181 -3.260
-7.258 -7.062 -0.198
-9.326 -7.157 -2.190
-9.326 -7.157 -2.190
-9.326 -7.157 -2.190
-11.057 -7.040 -3.991
-13.171 -7.824 -5.357
-13.171 -7.824 -5.357
-6.481 -7.522 1.047
-7.022 -4.766 -2.251
-7.959 -5.272 -2.674
-10.115 -6.126 -3.986
-13.171 -7.824 -5.357
-13.062 -7.432 -5.687
-7.885 -5.203 -3.089
-8.280 -5.779 -2.480
-7.817 -5.376 -2.418
-8.776 -6.353 -2.414
-8.058 -6.993 -1.062
-7.885 -5.203 -3.089
-7.886 -7.308 -0.551
-8.437 -6.096 -2.318
-11.107 -7.036 -4.045
-4.338 -5.414 1.107
-7.885 -5.203 -3.089
-6.171 -7.190 1.044
-9.176 -6.804 -2.478
-11.142 -4.473 -6.780
-6.874 -7.005 0.156
-8.333 -6.392 -2.142
-8.039 -5.181 -3.260
-6.191 -5.820 -0.448
-4.843 -5.542 0.728
-6.874 -7.005 0.156
-8.058 -6.993 -1.062
-10.113 -6.208 -4.010
-7.031 -7.144 0.137
-7.817 -5.376 -2.418
-6.191 -5.820 -0.448
-6.191 -5.820 -0.448
-10.170 -6.114 -4.054
-7.832 -5.165 -2.732
-8.061 -6.991 -1.067
-7.888 -7.304 -0.557
-4.657 -5.542 0.917
-7.887 -7.304 -0.557
-13.066 -7.432 -5.692
-4.836 -5.540 0.732
-6.353 -7.153 0.828
-11.061 -7.039 -3.995
-8.275 -5.779 -2.475
-6.599 -4.455 -2.154
-8.275 -5.779 -2.475
-8.061 -6.991 -1.067
-10.118 -6.125 -3.990
-6.167 -7.190 1.047
-5.107 -4.795 -0.302
-7.256 -7.062 -0.196
-6.167 -7.190 1.047
-13.175 -7.824 -5.361
-8.373 -6.334 -2.242
-8.134 -5.167 -3.372
-6.191 -5.820 -0.448
-8.275 -5.779 -2.475
-6.330 -6.752 0.454
-7.065 -7.149 0.104
-11.141 -4.473 -6.779
-8.039 -5.181 -3.259
-6.191 -5.820 -0.448
-5.300 -5.383 0.115
-8.373 -6.335 -2.241
-13.064 -7.432 -5.690
-7.931 -5.197 -3.143
-8.060 -6.992 -1.064
-4.846 -5.541 0.724
-6.601 -7.177 0.575
-8.128 -5.256 -2.859
-7.030 -7.144 0.137
-10.678 -4.661 -6.011
-7.898 -5.202 -3.104
-6.600 -7.177 0.575
-4.709 -5.264 0.585
-4.709 -5.264 0.585
-6.282 -5.670 -0.587
-6.353 -7.153 0.828
-6.353 -7.153 0.828
-6.874 -7.005 0.156
-11.141 -4.473 -6.779
-8.039 -5.181 -3.259
-8.058 -6.993 -1.062
-8.157 -5.266 -2.971
-8.372 -6.335 -2.240
-6.332 -6.739 0.440
-7.890 -7.304 -0.560
-7.886 -7.308 -0.551
-8.039 -5.181 -3.259
-7.031 -7.144 0.137
-7.890 -7.304 -0.560
-8.157 -5.266 -2.971
-6.874 -7.005 0.156
-7.257 -7.062 -0.197
-9.326 -7.157 -2.190
-11.057 -7.040 -3.991
-6.600 -7.177 0.575
-7.261 -7.064 -0.199
-5.300 -5.383 0.115
-8.194 -5.258 -3.019
-7.931 -5.197 -3.143
-7.931 -5.197 -3.143
-5.496 -6.245 0.741
-7.016 -6.057 -1.046
-10.117 -6.125 -3.989
-7.886 -7.308 -0.551
-10.117 -6.125 -3.989
-8.280 -5.778 -2.481
-7.837 -5.165 -2.736
-8.194 -5.258 -3.019
-8.280 -5.778 -2.481
-8.086 -5.175 -3.314
-13.173 -7.824 -5.359
-8.280 -5.778 -2.481
-4.846 -5.541 0.724
-6.125 -6.861 0.768
-13.065 -7.432 -5.690
-10.115 -6.208 -4.012
-11.059 -7.040 -3.994
-10.731 -4.610 -6.238
-8.373 -6.335 -2.241
-8.059 -6.993 -1.063
-4.709 -5.264 0.584
-8.059 -6.993 -1.063
-7.897 -5.202 -3.103
-10.157 -6.118 -4.037
-7.031 -7.144 0.137
-8.280 -5.779 -2.481
-9.326 -7.156 -2.191
-5.301 -5.383 0.115
-9.327 -7.156 -2.192
-13.173 -7.824 -5.359
-7.862 -7.321 -0.515
-10.799 -6.825 -4.161
-7.890 -7.303 -0.560
-7.261 -7.064 -0.200
-4.845 -5.541 0.725
-13.064 -7.432 -5.690
-6.481 -7.522 1.046
-6.354 -7.153 0.828
-6.354 -7.153 0.828
-9.327 -7.156 -2.192
-8.316 -5.721 -2.575
-4.669 -5.278 0.626
-6.762 -7.134 0.392
-8.194 -5.258 -3.019
-8.316 -5.721 -2.575
-6.170 -7.190 1.044
-7.258 -7.062 -0.197
-4.669 -5.278 0.626
-8.280 -5.778 -2.481
-5.418 -4.691 -0.778
-6.170 -7.190 1.044
-4.669 -5.278 0.626
-8.280 -5.778 -2.481
-8.316 -5.721 -2.575
-8.316 -5.721 -2.575
-7.931 -5.197 -3.143
-4.711 -5.263 0.582
-4.711 -5.264 0.582
-6.600 -7.177 0.575
-7.754 -5.171 -2.647
-4.663 -5.547 0.916
-7.998 -5.268 -2.717
-6.350 -6.726 0.408
-4.663 -5.547 0.916
-7.931 -5.197 -3.143
-8.232 -5.092 -3.157
-7.030 -7.144 0.137
-8.316 -5.721 -2.575
-8.316 -5.721 -2.575
-4.710 -5.264 0.583
-10.203 -6.197 -4.112
-13.064 -7.432 -5.690
-6.283 -5.670 -0.587
-7.890 -7.303 -0.560
-7.885 -5.151 -2.799
-6.600 -7.177 0.575
-13.064 -7.432 -5.690
-7.016 -6.057 -1.046
-6.283 -5.670 -0.587
-7.885 -5.151 -2.799
-4.711 -5.263 0.581
-7.258 -7.062 -0.197
-7.931 -5.197 -3.143
-4.719 -5.509 0.822
-7.884 -5.151 -2.798
-8.013 -5.275 -2.820
-9.327 -7.156 -2.192
-7.737 -5.421 -2.292
-7.890 -7.303 -0.560
-8.194 -5.258 -3.019
-8.194 -5.258 -3.019
-8.194 -5.258 -3.019
-4.663 -5.547 0.916
-8.085 -5.175 -3.314
-13.065 -7.432 -5.690
-8.194 -5.258 -3.019
-7.030 -7.144 0.137
-5.301 -5.383 0.115
-8.194 -5.258 -3.019
-8.194 -5.258 -3.019
-4.879 -5.529 0.678
-13.064 -7.432 -5.690
-8.194 -5.258 -3.019
-9.327 -7.156 -2.192
-7.998 -5.268 -2.717
-6.170 -7.190 1.044
-13.065 -7.432 -5.690
-8.060 -6.992 -1.064
-6.170 -7.190 1.044
-7.998 -5.268 -2.717
-8.280 -5.778 -2.481
-7.030 -7.144 0.137
-9.327 -7.156 -2.192
-4.846 -5.541 0.724
-6.354 -7.153 0.828
-6.332 -6.740 0.441
-7.030 -7.144 0.137
-8.373 -6.334 -2.243
-4.669 -5.278 0.626
-10.115 -6.208 -4.012
-8.194 -5.258 -3.019
-8.280 -5.778 -2.481
-4.663 -5.547 0.916
-7.931 -5.197 -3.143
-8.316 -5.721 -2.575
-7.030 -7.144 0.137
-7.817 -5.375 -2.419
-8.232 -5.092 -3.157
-7.861 -7.321 -0.515
-8.060 -6.992 -1.064
-5.300 -5.383 0.115
-7.817 -5.375 -2.419
-8.194 -5.258 -3.019
-8.194 -5.258 -3.019
-6.170 -7.190 1.044
-8.315 -5.721 -2.574
-8.315 -5.721 -2.574
-7.931 -5.197 -3.143
-5.589 -5.382 -0.177
-8.280 -5.778 -2.481
-8.128 -5.256 -2.859
-7.931 -5.197 -3.143
-8.060 -6.992 -1.064
-10.159 -6.117 -4.039
-8.316 -5.721 -2.575
-6.283 -5.670 -0.587
-4.544 -4.748 0.233
-8.194 -5.258 -3.019
-7.817 -5.375 -2.419
-7.931 -5.197 -3.143
-6.354 -7.153 0.828
-8.194 -5.258 -3.020
-7.261 -7.064 -0.199
-8.194 -5.258 -3.019
-4.669 -5.278 0.626
-4.845 -5.541 0.725
-8.194 -5.258 -3.019
-4.663 -5.547 0.916
-6.874 -7.005 0.156
-7.931 -5.197 -3.143
-7.817 -5.375 -2.419
-7.024 -4.765 -2.254
-7.027 -7.144 0.141
-5.215 -5.276 0.081
-8.134 -5.167 -3.372
-6.755 -7.462 0.735
-6.353 -7.153 0.828
-13.175 -7.824 -5.361
-6.600 -7.177 0.575
-8.310 -5.722 -2.568
-6.600 -7.177 0.575
-8.134 -5.167 -3.372
-4.543 -4.748 0.234
-8.134 -5.167 -3.372
-5.456 -4.593 -0.917
-8.151 -5.164 -3.391
-8.217 -5.838 -2.357
-8.151 -5.164 -3.391
-4.677 -5.543 0.899
-7.861 -7.320 -0.515
-10.161 -6.117 -4.042
-6.168 -7.190 1.047
-8.248 -5.246 -3.090
-8.326 -6.403 -2.125
-13.068 -7.431 -5.695
-8.280 -5.777 -2.482
-6.191 -5.820 -0.449
-9.329 -7.155 -2.196
-8.248 -5.246 -3.090
-8.248 -5.246 -3.090
-8.150 -5.164 -3.391
-4.677 -5.543 0.899
-8.150 -5.164 -3.391
-8.150 -5.164 -3.391
-4.842 -5.539 0.726
-8.337 -5.244 -3.183
-7.256 -7.062 -0.197
-7.889 -7.303 -0.560
-8.337 -5.244 -3.183
-7.028 -7.143 0.139
-5.953 -7.048 1.127
-8.248 -5.246 -3.090
-7.028 -7.143 0.139
-8.248 -5.246 -3.090
-4.842 -5.539 0.726
-8.248 -5.246 -3.090
-4.879 -5.522 0.672
-7.861 -7.320 -0.515
-13.068 -7.431 -5.695
-9.329 -7.155 -2.196
-6.354 -7.152 0.827
-8.248 -5.246 -3.090
-6.354 -7.152 0.828
-8.248 -5.246 -3.090
-8.158 -5.260 -2.986
-6.354 -7.152 0.827
-6.354 -7.152 0.827
-4.661 -5.545 0.916
-4.680 -5.277 0.614
-7.024 -4.763 -2.256
-7.996 -5.186 -3.220
-8.185 -5.247 -2.925
-6.601 -7.176 0.574
-8.249 -5.246 -3.091
-6.602 -4.455 -2.158
-13.068 -7.431 -5.695
-8.249 -5.246 -3.091
-8.249 -5.246 -3.091
-7.996 -5.186 -3.220
-4.879 -5.522 0.672
-13.176 -7.823 -5.364
-7.024 -4.763 -2.256
-4.842 -5.539 0.726
-4.676 -5.543 0.899
-8.238 -5.170 -3.479
-7.028 -7.143 0.139
-6.392 -7.151 0.788
-4.844 -5.536 0.721
-10.206 -6.196 -4.115
-7.855 -5.317 -2.516
-8.150 -5.164 -3.391
-7.817 -5.373 -2.420
-4.710 -5.262 0.582
-6.746 -4.433 -2.316
-4.728 -5.268 0.555
-9.329 -7.155 -2.196
-6.746 -4.433 -2.316
-7.996 -5.186 -3.220
-8.151 -5.164 -3.391
-8.249 -5.246 -3.091
-8.432 -5.252 -3.330
-8.249 -5.246 -3.091
-6.601 -7.176 0.574
-4.543 -4.748 0.234
-7.028 -7.143 0.139
-7.736 -5.420 -2.293
-8.289 -5.077 -3.231
-6.354 -7.152 0.827
-4.845 -5.535 0.720
-8.248 -5.246 -3.090
-9.329 -7.155 -2.196
-6.393 -7.150 0.786
-8.240 -5.170 -3.481
-8.151 -5.164 -3.391
-8.328 -5.250 -3.232
-6.354 -7.152 0.827
-8.328 -5.250 -3.232
-4.845 -5.535 0.719
-4.710 -5.262 0.581
-6.354 -7.152 0.827
-8.315 -5.719 -2.576
-4.845 -5.535 0.720
-8.248 -5.246 -3.090
-8.150 -5.164 -3.391
-5.496 -6.244 0.741
-5.641 -5.377 -0.234
-7.855 -5.317 -2.515
-8.248 -5.246 -3.090
-6.283 -5.670 -0.588
-8.280 -5.777 -2.482
-8.248 -5.246 -3.090
-7.028 -7.143 0.139
-8.236 -5.170 -3.477
-8.335 -5.244 -3.180
-8.150 -5.164 -3.391
-13.176 -7.823 -5.364
-8.248 -5.246 -3.090
-6.354 -7.152 0.827
-8.150 -5.164 -3.391
-8.150 -5.164 -3.391
-4.677 -5.543 0.899
-5.496 -6.244 0.741
-6.602 -4.455 -2.158
-8.338 -5.244 -3.184
-8.150 -5.164 -3.391
-6.354 -7.152 0.828
-8.238 -5.170 -3.479
-6.628 -7.176 0.548
-4.668 -5.277 0.626
-8.315 -5.719 -2.576
-5.496 -6.244 0.741
-8.338 -5.244 -3.184
-7.317 -7.071 -0.240
-5.496 -6.244 0.741
-8.292 -5.246 -3.032
-8.338 -5.244 -3.184
-7.028 -7.143 0.139
-7.260 -7.063 -0.199
-13.176 -7.823 -5.364
-8.150 -5.164 -3.391
-8.338 -5.244 -3.184
-8.289 -5.077 -3.231
-6.354 -7.152 0.828
-8.315 -5.719 -2.576
-8.184 -5.247 -2.925
-8.338 -5.244 -3.184
-8.315 -5.719 -2.576
-6.601 -7.176 0.574
-7.257 -7.062 -0.197
-4.677 -5.543 0.899
-8.238 -5.170 -3.479
-8.248 -5.246 -3.090
-8.248 -5.246 -3.090
-5.496 -6.244 0.741
-7.889 -7.303 -0.560
-8.248 -5.246 -3.090
-5.953 -7.048 1.127
-8.335 -5.244 -3.180
-6.627 -7.175 0.548
-6.390 -7.150 0.788
-7.068 -7.150 0.102
-6.391 -7.150 0.787
-8.248 -5.246 -3.090
-4.677 -5.543 0.899
-6.354 -7.152 0.828
-6.392 -7.151 0.787
-6.392 -7.151 0.787
-8.430 -5.252 -3.328
-6.630 -7.633 1.003
-4.661 -5.545 0.916
-8.248 -5.246 -3.090
-8.184 -5.247 -2.925
-8.431 -5.252 -3.329
-8.334 -6.389 -2.145
-5.641 -5.377 -0.234
-6.354 -7.152 0.828
-8.238 -5.170 -3.479
-6.392 -7.151 0.787
-8.248 -5.246 -3.090
-8.248 -5.246 -3.090
-7.024 -4.763 -2.256
-4.661 -5.545 0.916
-6.872 -7.005 0.158
-7.024 -4.763 -2.256
-8.150 -5.164 -3.391
-8.338 -5.244 -3.184
-4.845 -5.535 0.720
-4.680 -5.277 0.614
-5.242 -5.275 0.051
-4.677 -5.543 0.899
-4.664 -5.261 0.628
-5.641 -5.377 -0.234
-5.242 -5.275 0.051
-8.150 -5.164 -3.391
-4.661 -5.545 0.916
-6.601 -7.176 0.574
-4.677 -5.543 0.899
-6.628 -7.176 0.548
-6.628 -7.176 0.548
-5.496 -6.244 0.741
-6.348 -6.726 0.409
-8.315 -5.719 -2.576
-8.315 -5.719 -2.576
-8.290 -5.246 -3.031
-6.627 -7.175 0.548
-4.955 -4.986 0.061
-4.955 -4.986 0.061
-8.238 -5.170 -3.478
-6.354 -7.152 0.828
-6.354 -7.152 0.827
-8.338 -5.244 -3.183
-4.661 -5.545 0.916
-8.248 -5.246 -3.090
-6.191 -5.820 -0.449
-5.242 -5.275 0.051
-5.393 -5.007 -0.363
-8.338 -5.244 -3.184
-8.248 -5.246 -3.090
-8.248 -5.246 -3.090
-6.628 -7.175 0.548
-4.955 -4.986 0.061
-7.996 -5.186 -3.220
-8.249 -5.246 -3.091
-6.603 -4.457 -2.150
-4.841 -5.535 0.723
-6.600 -7.177 0.575
-6.392 -7.151 0.788
-6.392 -7.151 0.788
-4.673 -5.541 0.900
-8.310 -5.722 -2.568
-7.880 -5.151 -2.794
-7.027 -7.144 0.141
-7.996 -5.186 -3.220
-6.191 -5.820 -0.449
-6.783 -7.201 0.437
-8.239 -5.170 -3.480
-6.354 -7.152 0.827
-8.151 -5.164 -3.391
-8.249 -5.246 -3.091
-4.680 -5.276 0.614
-7.885 -5.150 -2.799
-8.292 -5.246 -3.033
-6.392 -7.150 0.787
-6.284 -5.670 -0.588
-6.601 -7.176 0.574
-4.680 -5.277 0.614
-8.249 -5.246 -3.091
-8.339 -5.243 -3.185
-8.432 -5.252 -3.330
-5.393 -5.007 -0.363
-5.496 -6.244 0.741
-8.249 -5.246 -3.091
-7.028 -7.143 0.139
-8.249 -5.246 -3.091
-6.628 -7.175 0.548
-8.249 -5.246 -3.091
-10.204 -6.196 -4.113
-8.292 -5.246 -3.033
-7.885 -5.150 -2.799
-8.339 -5.243 -3.185
-8.239 -5.170 -3.480
-8.239 -5.170 -3.480
-6.862 -4.809 -2.047
-5.641 -5.377 -0.234
-8.292 -5.246 -3.033
-8.339 -5.243 -3.185
-4.955 -4.986 0.061
-6.601 -7.176 0.574
-8.151 -5.164 -3.391
-5.641 -5.377 -0.234
-5.496 -6.244 0.741
-6.392 -7.150 0.787
-6.628 -7.175 0.548
-6.628 -7.175 0.548
-5.641 -5.377 -0.234
-6.628 -7.176 0.548
-5.218 -5.278 0.080
-8.249 -5.246 -3.091
-4.955 -4.986 0.061
-6.392 -7.150 0.787
-8.249 -5.246 -3.091
-8.315 -5.719 -2.577
-7.028 -7.143 0.139
-8.249 -5.246 -3.091
-6.354 -7.152 0.827
-7.856 -5.317 -2.516
-7.856 -5.317 -2.516
-7.856 -5.317 -2.516
-6.601 -7.176 0.574
-7.856 -5.317 -2.516
-6.392 -7.150 0.787
-8.239 -5.170 -3.480
-8.338 -5.244 -3.184
-5.218 -5.278 0.080
-6.191 -5.820 -0.449
-8.338 -5.244 -3.184
-5.496 -6.244 0.741
-4.955 -4.986 0.061
-8.339 -5.244 -3.184
-8.339 -5.244 -3.184
-6.628 -7.175 0.548
-8.280 -5.777 -2.483
-7.885 -5.150 -2.799
-5.218 -5.278 0.080
-4.955 -4.986 0.061
-7.885 -5.150 -2.799
-6.862 -4.809 -2.048
-8.338 -5.244 -3.184
-5.394 -5.007 -0.363
-13.068 -7.431 -5.695
-7.024 -4.763 -2.256
-8.339 -5.243 -3.185
-7.024 -4.763 -2.256
-8.339 -5.243 -3.185
-4.681 -5.276 0.613
-8.293 -5.246 -3.034
-5.496 -6.244 0.741
-5.496 -6.244 0.741
-6.392 -7.150 0.787
-5.585 -4.336 -1.295
-4.680 -5.277 0.614
-6.602 -4.455 -2.158
-8.238 -5.170 -3.479
-4.676 -5.544 0.899
-4.676 -5.544 0.899
-4.955 -4.986 0.061
-8.291 -5.246 -3.032
-4.879 -5.522 0.672
-4.680 -5.277 0.614
-8.238 -5.170 -3.479
-5.374 -5.533 0.179
-8.248 -5.246 -3.090
-8.431 -5.252 -3.329
-4.680 -5.277 0.614
-6.392 -7.150 0.787
-8.292 -5.246 -3.032
-8.162 -5.257 -2.891
-8.239 -5.170 -3.480
-8.292 -5.246 -3.033
-11.062 -7.039 -3.998
-4.955 -4.986 0.061
-8.248 -5.246 -3.091
-8.248 -5.246 -3.091
-4.955 -4.986 0.061
-8.292 -5.246 -3.033
-7.028 -7.143 0.139
-4.675 -5.544 0.901
-8.248 -5.246 -3.091
-6.392 -7.150 0.787
-7.024 -4.763 -2.256
-6.784 -7.202 0.437
-4.681 -5.276 0.613
-8.151 -5.164 -3.391
-8.339 -5.243 -3.184
-8.339 -5.243 -3.184
-8.248 -5.246 -3.091
-4.677 -5.543 0.899
-8.151 -5.164 -3.391
-6.628 -7.175 0.548
-4.955 -4.986 0.061
-8.217 -5.838 -2.357
-8.292 -5.246 -3.032
-8.338 -5.244 -3.184
-4.680 -5.277 0.614
-5.242 -5.275 0.051
-8.292 -5.246 -3.032
-8.315 -5.719 -2.576
-8.151 -5.164 -3.391
-7.856 -5.317 -2.516
-5.393 -5.007 -0.363
-8.431 -5.252 -3.329
-6.783 -7.201 0.438
-6.191 -5.820 -0.449
-7.294 -6.868 -0.424
-4.899 -4.677 -0.192
-7.328 -6.845 -0.477
-4.899 -4.677 -0.192
-7.328 -6.845 -0.477
-7.328 -6.845 -0.477
-6.199 -5.817 -0.460
-7.028 -6.042 -1.074
-6.695 -6.582 -0.103
-6.765 -6.565 -0.262
-5.109 -4.795 -0.304
-6.241 -5.802 -0.517
-6.267 -5.682 -0.644
-5.109 -4.795 -0.304
-6.267 -5.682 -0.644
-4.542 -4.748 0.235
-6.241 -5.802 -0.517
-6.717 -6.562 -0.147
-6.241 -5.802 -0.517
-6.241 -5.802 -0.517
-7.087 -5.963 -1.225
-6.241 -5.802 -0.517
-6.241 -5.802 -0.517
-5.805 -5.601 -0.177
-5.392 -5.006 -0.362
-5.392 -5.006 -0.362
-6.717 -6.562 -0.147
-6.241 -5.802 -0.517
-6.241 -5.802 -0.517
-4.542 -4.748 0.235
-5.805 -5.601 -0.177
-6.241 -5.802 -0.517
-5.392 -5.006 -0.362
-5.805 -5.601 -0.177
-5.805 -5.601 -0.177
-5.805 -5.601 -0.177
-6.241 -5.802 -0.517
-6.241 -5.802 -0.517
-6.241 -5.802 -0.517
-5.109 -4.795 -0.304
-6.717 -6.562 -0.147
-5.805 -5.601 -0.177
-6.241 -5.802 -0.517
-7.087 -5.963 -1.225
-5.167 -5.430 0.287
-6.241 -5.802 -0.517
-5.392 -5.006 -0.362
-6.267 -5.682 -0.644
-6.241 -5.802 -0.517
-6.717 -6.562 -0.147
-5.167 -5.430 0.287
-6.241 -5.802 -0.517
-6.241 -5.802 -0.517
-6.717 -6.562 -0.147
-6.717 -6.562 -0.147
-5.805 -5.601 -0.177
-6.241 -5.802 -0.517
-4.898 -4.676 -0.192
-5.167 -5.430 0.287
-5.109 -4.795 -0.304
-5.167 -5.430 0.287
-6.267 -5.682 -0.645
-7.908 -5.442 -2.453
-5.167 -5.430 0.287
-5.805 -5.601 -0.177
-7.908 -5.442 -2.453
-5.167 -5.430 0.287
-5.109 -4.795 -0.304
-6.267 -5.682 -0.644
-6.267 -5.682 -0.645
-5.805 -5.601 -0.177
-5.109 -4.795 -0.304
-6.267 -5.682 -0.645
-5.167 -5.430 0.287
-7.087 -5.963 -1.225
-6.241 -5.802 -0.517
-5.392 -5.006 -0.362
-6.241 -5.802 -0.517
-5.109 -4.795 -0.304
-6.241 -5.802 -0.517
-8.453 -5.340 -3.086
-6.191 -5.821 -0.448
-5.385 -5.010 -0.351
-5.800 -5.605 -0.169
-5.104 -4.797 -0.297
-6.191 -5.821 -0.448
-6.222 -5.715 -0.566
-6.191 -5.821 -0.448
-8.316 -5.246 -3.160
-8.226 -5.173 -3.465
-4.540 -4.750 0.239
-8.235 -5.319 -2.904
-5.110 -4.797 -0.303
-6.192 -5.820 -0.449
-5.110 -4.797 -0.303
-5.193 -5.054 -0.115
-4.541 -4.749 0.236
-5.813 -5.602 -0.185
-6.192 -5.820 -0.449
-6.192 -5.820 -0.449
-8.024 -5.424 -2.590
-6.977 -4.552 -2.408
-7.646 -5.162 -2.496
-5.386 -5.009 -0.354
-5.386 -5.009 -0.354
-5.110 -4.797 -0.303
-4.896 -4.676 -0.189
-5.193 -5.054 -0.115
-6.977 -4.552 -2.408
-7.325 -6.852 -0.469
-6.198 -5.818 -0.458
-6.198 -5.818 -0.458
-6.198 -5.818 -0.458
-8.231 -5.451 -2.754
-5.813 -5.602 -0.185
-6.198 -5.818 -0.458
-5.813 -5.602 -0.185
-6.198 -5.818 -0.458
-6.867 -5.391 -1.478
-6.198 -5.818 -0.458
-5.386 -5.009 -0.353
-5.813 -5.602 -0.185
-6.198 -5.818 -0.458
-5.179 -5.429 0.275
-4.541 -4.749 0.236
-5.179 -5.429 0.275
-8.025 -5.423 -2.591
-8.231 -5.451 -2.754
-6.753 -4.565 -2.174
-8.228 -5.172 -3.468
-5.111 -4.796 -0.304
-5.813 -5.602 -0.185
-5.111 -4.796 -0.304
-6.198 -5.818 -0.458
-5.193 -5.054 -0.115
-4.896 -4.676 -0.189
-5.813 -5.602 -0.185
-5.386 -5.009 -0.353
-5.813 -5.602 -0.185
-4.896 -4.676 -0.189
-4.949 -4.987 0.068
-5.111 -4.796 -0.304
-8.025 -5.423 -2.591
-8.420 -5.252 -3.318
-4.896 -4.676 -0.189
-6.198 -5.818 -0.458
-8.025 -5.423 -2.591
-4.896 -4.676 -0.189
-8.318 -5.245 -3.163
-6.399 -7.158 0.787
-7.573 -5.207 -2.345
-6.198 -5.818 -0.458
-8.231 -5.451 -2.754
-8.231 -5.451 -2.754
-7.776 -5.116 -2.639
-4.949 -4.987 0.068
-5.193 -5.054 -0.115
-4.949 -4.987 0.068
-8.228 -5.172 -3.468
-8.024 -5.423 -2.590
-5.373 -5.534 0.180
-4.541 -4.749 0.236
-8.228 -5.172 -3.468
-8.420 -5.252 -3.318
-6.198 -5.818 -0.458
-5.373 -5.534 0.180
-7.572 -5.208 -2.344
-8.228 -5.172 -3.468
-4.949 -4.987 0.068
-5.193 -5.054 -0.115
-8.228 -5.172 -3.468
-6.229 -5.712 -0.577
-6.198 -5.818 -0.458
-7.018 -6.051 -1.055
-8.228 -5.172 -3.468
-4.949 -4.987 0.068
-8.278 -5.248 -3.016
-6.198 -5.818 -0.458
-8.420 -5.252 -3.318
-5.386 -5.009 -0.353
-4.949 -4.987 0.068
-6.630 -7.182 0.551
-4.949 -4.987 0.068
-6.630 -7.182 0.551
-8.318 -5.245 -3.163
-5.373 -5.534 0.180
-5.386 -5.009 -0.353
-5.373 -5.534 0.180
-4.949 -4.987 0.068
-4.949 -4.987 0.068
-6.198 -5.818 -0.458
-5.373 -5.534 0.180
-5.632 -5.378 -0.224
-4.949 -4.987 0.068
-4.949 -4.987 0.068
-5.111 -4.796 -0.304
-8.420 -5.252 -3.318
-5.386 -5.009 -0.353
-6.690 -6.583 -0.096
-5.111 -4.796 -0.304
-6.399 -7.158 0.787
-8.318 -5.245 -3.163
-6.198 -5.818 -0.458
-4.949 -4.987 0.068
-5.179 -5.429 0.275
-4.949 -4.987 0.068
-5.373 -5.534 0.180
-6.630 -7.182 0.551
-7.852 -5.316 -2.513
-5.632 -5.378 -0.224
-8.228 -5.172 -3.468
-8.024 -5.423 -2.590
-6.399 -7.158 0.787
-8.230 -5.451 -2.753
-5.632 -5.378 -0.224
-5.152 -5.772 0.635
-7.488 -6.806 -0.676
-8.231 -5.450 -2.754
-5.181 -5.766 0.601
-4.896 -4.676 -0.190
-4.955 -4.986 0.061
-5.486 -6.271 0.813
-8.421 -5.252 -3.319
-6.226 -5.807 -0.497
-6.633 -7.182 0.548
-4.955 -4.986 0.061
-8.278 -5.248 -3.017
-8.421 -5.252 -3.319
-8.228 -5.172 -3.469
-8.200 -5.255 -2.932
-5.193 -5.053 -0.115
-8.438 -5.247 -3.341
-4.956 -4.985 0.060
-4.956 -4.985 0.060
-8.317 -5.712 -2.585
-8.296 -5.243 -3.039
-4.956 -4.985 0.060
-5.396 -5.530 0.152
-5.214 -5.763 0.580
-5.396 -5.530 0.152
-8.339 -5.239 -3.189
-5.214 -5.763 0.580
-8.243 -5.167 -3.488
-8.243 -5.167 -3.488
-7.044 -6.006 -1.133
-5.634 -5.378 -0.227
-8.296 -5.243 -3.039
-5.396 -5.530 0.152
-5.807 -5.176 -0.633
-5.406 -5.530 0.142
-8.221 -5.382 -2.828
-6.230 -5.808 -0.500
-6.230 -5.808 -0.500
-5.193 -5.766 0.588
-8.343 -5.230 -3.098
-5.193 -5.766 0.588
-4.965 -4.987 0.052
-4.965 -4.987 0.052
-8.343 -5.230 -3.098
-7.064 -6.003 -1.155
-8.343 -5.230 -3.098
-4.965 -4.987 0.052
-5.193 -5.766 0.588
-8.221 -5.382 -2.828
-5.479 -6.269 0.819
-6.230 -5.808 -0.500
-5.406 -5.530 0.142
-8.221 -5.382 -2.828
-4.965 -4.987 0.052
-5.193 -5.766 0.588
-5.193 -5.766 0.588
-6.392 -7.156 0.792
-8.249 -5.241 -2.994
-6.230 -5.808 -0.500
-5.406 -5.530 0.142
-4.965 -4.987 0.052
-4.965 -4.987 0.052
-8.282 -5.161 -3.537
-6.588 -5.275 -1.363
-5.193 -5.766 0.588
-6.935 -4.507 -2.414
-5.225 -5.762 0.568
-4.965 -4.987 0.052
-8.281 -5.161 -3.536
-5.839 -5.591 -0.220
-8.281 -5.161 -3.536
-8.222 -5.381 -2.830
-8.281 -5.161 -3.536
-8.222 -5.381 -2.830
-8.344 -5.230 -3.100
-8.344 -5.230 -3.100
-7.064 -6.003 -1.155
-8.222 -5.381 -2.830
-8.344 -5.230 -3.100
-8.384 -5.228 -3.242
-8.281 -5.161 -3.536
-5.920 -5.157 -0.768
-6.230 -5.808 -0.500
-5.839 -5.591 -0.220
-5.193 -5.766 0.588
-5.193 -5.766 0.588
-5.406 -5.530 0.142
-5.225 -5.762 0.569
-5.204 -5.049 -0.131
-8.383 -5.229 -3.240
-8.280 -5.162 -3.534
-8.383 -5.229 -3.240
-6.705 -5.317 -1.430
-9.158 -7.459 -1.683
-7.249 -7.060 -0.191
-7.249 -7.060 -0.191
-11.132 -7.030 -4.077
-9.312 -7.643 -1.653
-9.312 -7.643 -1.653
-7.215 -5.037 -2.165
-7.260 -7.061 -0.201
-7.260 -7.061 -0.201
-8.379 -6.328 -2.254
-7.260 -7.061 -0.201
-7.889 -7.303 -0.560
-7.852 -5.316 -2.512
-7.215 -5.037 -2.165
-7.852 -5.316 -2.512
-7.260 -7.061 -0.201
-7.852 -5.316 -2.512
-9.157 -7.459 -1.682
-7.852 -5.316 -2.512
-10.975 -7.025 -3.924
-9.145 -7.462 -1.667
-9.988 -6.118 -3.868
-11.053 -7.041 -3.987
-7.883 -7.304 -0.553
-9.135 -7.463 -1.656
-8.310 -5.719 -2.571
-8.310 -5.719 -2.571
-7.252 -7.062 -0.192
-9.135 -7.463 -1.656
-7.252 -7.062 -0.192
-11.053 -7.041 -3.987
-10.959 -7.029 -3.904
-9.135 -7.463 -1.656
-7.215 -5.036 -2.167
-7.883 -7.304 -0.553
-7.654 -6.053 -1.595
-8.310 -5.719 -2.571
-7.252 -7.062 -0.192
-9.135 -7.463 -1.656
-10.959 -7.029 -3.904
-8.310 -5.719 -2.571
-6.279 -5.669 -0.584
-7.252 -7.062 -0.192
-10.153 -6.118 -4.033
-8.364 -6.337 -2.231
-8.364 -6.337 -2.231
-11.103 -7.037 -4.041
-9.283 -7.650 -1.616
-7.252 -7.062 -0.192
-11.103 -7.037 -4.041
-8.310 -5.719 -2.571