-13.236 -9.165 -4.219
-8.692 -8.821 0.123
-10.072 -8.233 -2.057
-9.616 -7.250 -2.478
-8.692 -8.821 0.123
-8.692 -8.821 0.123
-11.605 -8.159 -3.551
-7.436 -7.970 0.521
-11.605 -8.159 -3.551
-9.616 -7.250 -2.478
-11.605 -8.159 -3.551
-10.687 -8.970 -1.757
-11.605 -8.159 -3.551
-11.605 -8.159 -3.551
-13.236 -9.165 -4.219
-9.316 -8.626 -0.712
-9.493 -8.843 -0.845
-9.056 -8.104 -0.994
-11.605 -8.159 -3.551
-8.692 -8.821 0.123
-8.692 -8.821 0.123
-9.063 -8.099 -1.006
-9.302 -8.628 -0.695
-9.493 -8.843 -0.845
-11.605 -8.159 -3.551
-9.302 -8.628 -0.695
-8.917 -8.016 -0.933
-8.376 -8.471 0.085
-8.692 -8.821 0.123
-8.692 -8.821 0.123
-11.605 -8.159 -3.551
-6.518 -6.740 0.221
-8.692 -8.821 0.123
-8.692 -8.821 0.123
-9.493 -8.843 -0.845
-6.517 -6.740 0.222
-13.236 -9.165 -4.219
-9.056 -8.104 -0.994
-10.687 -8.971 -1.757
-9.849 -9.775 -0.076
-11.572 -8.725 -2.960
-9.316 -8.626 -0.711
-9.302 -8.628 -0.695
-9.493 -8.843 -0.845
-8.692 -8.821 0.123
-9.422 -9.234 -0.263
-10.072 -8.233 -2.057
-13.236 -9.165 -4.219
-8.097 -8.435 0.338
-9.493 -8.843 -0.845
-8.691 -8.822 0.124
-8.692 -8.821 0.123
-11.605 -8.159 -3.551
-11.605 -8.159 -3.551
-8.692 -8.821 0.123
-7.681 -8.306 0.622
-9.493 -8.843 -0.845
-9.849 -9.775 -0.076
-9.238 -5.884 -3.452
-9.238 -5.884 -3.452
-8.736 -9.080 0.343
-11.567 -8.726 -2.954
-9.301 -8.628 -0.694
-10.684 -8.971 -1.754
-9.426 -8.833 -0.680
-8.694 -8.822 0.122
-11.567 -8.726 -2.954
-10.070 -8.233 -2.054
-10.070 -8.233 -2.054
-9.491 -8.844 -0.843
-8.736 -9.080 0.343
-11.567 -8.726 -2.954
-8.431 -8.857 0.419
-8.223 -7.852 -0.393
-8.216 -7.847 -0.394
-7.226 -7.570 0.326
-13.232 -9.168 -4.213
-8.694 -8.822 0.122
-9.371 -8.077 -1.294
-8.164 -7.440 -0.800
-9.315 -8.626 -0.711
-7.347 -8.731 1.379
-9.062 -8.100 -1.004
-10.525 -8.740 -2.111
-7.548 -8.012 0.438
-9.327 -8.763 -0.576
-9.421 -9.236 -0.260
-11.602 -8.160 -3.546
-8.101 -8.436 0.335
-9.494 -8.844 -0.846
-8.180 -7.437 -0.819
-9.345 -8.972 -0.375
-11.568 -8.726 -2.956
-11.568 -8.726 -2.956
-9.421 -9.236 -0.260
-8.433 -8.858 0.418
-11.568 -8.726 -2.956
-8.763 -9.717 0.921
-8.180 -7.437 -0.819
-11.568 -8.726 -2.956
-8.736 -9.079 0.343
-7.436 -7.964 0.515
-11.568 -8.726 -2.956
-8.068 -7.458 -0.691
-10.072 -8.233 -2.056
-8.696 -8.822 0.119
-8.101 -8.436 0.335
-9.850 -9.775 -0.077
-8.736 -9.080 0.343
-13.233 -9.167 -4.215
-9.421 -9.236 -0.260
-7.349 -8.730 1.378
-8.101 -8.436 0.335
-9.255 -5.859 -3.495
-7.695 -8.264 0.538
-8.696 -8.822 0.119
-8.414 -9.284 0.867
-8.101 -8.436 0.335
-7.695 -8.264 0.538
-9.390 -8.765 -0.634
-9.494 -8.844 -0.846
-8.432 -8.856 0.418
-9.059 -8.105 -0.996
-11.602 -8.160 -3.546
-7.437 -7.966 0.516
-7.695 -8.264 0.538
-11.568 -8.726 -2.956
-7.234 -7.570 0.319
-8.101 -8.436 0.335
-7.792 -7.523 -0.292
-8.696 -8.822 0.119
-8.101 -8.436 0.335
-9.255 -5.859 -3.495
-8.101 -8.436 0.335
-8.763 -9.717 0.921
-8.181 -7.437 -0.819
-13.233 -9.167 -4.215
-8.763 -9.717 0.921
-7.437 -7.963 0.514
-9.458 -6.790 -2.719
-10.562 -8.708 -2.185
-8.381 -8.472 0.081
-9.013 -9.077 0.051
-9.496 -8.844 -0.848
-9.496 -8.844 -0.848
-8.414 -9.284 0.868
-11.604 -8.159 -3.550
-9.391 -8.763 -0.637
-7.698 -8.263 0.534
-11.604 -8.159 -3.550
-10.073 -8.232 -2.058
-13.236 -9.166 -4.219
-7.887 -8.217 0.278
-7.627 -7.304 -0.352
-9.369 -8.971 -0.399
-9.496 -8.844 -0.848
-8.126 -8.508 0.366
-11.604 -8.159 -3.550
-9.345 -8.972 -0.375
-11.604 -8.159 -3.550
-8.213 -7.425 -0.867
-10.562 -8.708 -2.185
-8.763 -9.717 0.920
-7.555 -8.010 0.429
-9.496 -8.844 -0.847
-7.627 -7.304 -0.351
-8.258 -8.162 -0.165
-8.697 -8.821 0.118
-9.422 -9.235 -0.262
-11.604 -8.159 -3.550
-8.737 -9.079 0.342
-9.496 -8.844 -0.848
-10.688 -8.971 -1.758
-9.850 -9.775 -0.077
-8.823 -8.821 -0.005
-8.101 -8.436 0.335
-8.697 -8.821 0.118
-9.850 -9.775 -0.077
-7.555 -8.010 0.429
-11.604 -8.159 -3.550
-9.366 -8.971 -0.396
-8.213 -7.425 -0.867
-9.850 -9.775 -0.077
-9.850 -9.775 -0.077
-8.823 -8.821 -0.005
-8.763 -9.717 0.920
-9.422 -9.235 -0.262
-9.496 -8.844 -0.848
-8.213 -7.425 -0.867
-8.213 -7.425 -0.867
-11.604 -8.159 -3.550
-9.475 -8.835 -0.844
-9.850 -9.775 -0.077
-8.213 -7.425 -0.867
-8.213 -7.425 -0.867
-9.320 -8.626 -0.716
-8.763 -9.717 0.920
-7.793 -7.523 -0.293
-11.571 -8.725 -2.960
-8.799 -8.821 0.021
-9.422 -9.235 -0.262
-9.389 -8.765 -0.634
-9.496 -8.844 -0.848
-13.236 -9.166 -4.219
-8.701 -8.503 -0.197
-10.527 -8.739 -2.114
-11.571 -8.725 -2.960
-9.022 -9.074 0.040
-9.369 -8.971 -0.399
-9.850 -9.775 -0.077
-11.571 -8.725 -2.960
-8.434 -8.856 0.415
-9.850 -9.775 -0.077
-11.571 -8.726 -2.959
-10.562 -8.708 -2.185
-9.348 -8.972 -0.378
-9.345 -8.972 -0.375
-8.213 -7.425 -0.867
-9.366 -8.971 -0.396
-9.496 -8.844 -0.848
-8.823 -8.821 -0.005
-8.737 -9.079 0.342
-7.793 -7.523 -0.293
-9.422 -9.235 -0.262
-10.651 -8.323 -2.370
-13.236 -9.166 -4.219
-11.604 -8.159 -3.550
-8.763 -9.717 0.920
-8.823 -8.821 -0.005
-6.527 -6.742 0.214
-8.673 -8.684 0.010
-8.673 -8.684 0.010
-9.388 -8.762 -0.635
-8.736 -9.079 0.342
-11.572 -8.725 -2.960
-9.422 -9.234 -0.263
-7.436 -7.970 0.521
-10.526 -8.739 -2.113
-7.681 -8.306 0.622
-9.849 -9.775 -0.076
-7.436 -7.970 0.521
-9.849 -9.775 -0.076
-13.236 -9.165 -4.219
-8.692 -8.821 0.123
-9.385 -8.764 -0.630
-11.572 -8.725 -2.960
-8.910 -8.020 -0.921
-8.225 -7.413 -0.898
-8.376 -8.471 0.085
-11.572 -8.725 -2.960
-9.616 -7.250 -2.478
-9.422 -9.234 -0.263
-8.410 -9.284 0.871
-9.493 -8.843 -0.845
-9.385 -8.764 -0.630
-10.561 -8.708 -2.184
-7.786 -7.523 -0.286
-8.670 -8.685 0.013
-9.849 -9.775 -0.076
-7.532 -7.318 -0.244
-6.492 -7.200 0.707
-9.474 -8.835 -0.844
-10.683 -8.986 -1.737
-8.098 -8.435 0.337
-10.689 -8.971 -1.758
-11.606 -8.158 -3.552
-9.368 -8.971 -0.398
-9.347 -8.972 -0.377
-8.098 -8.435 0.337
-9.496 -8.843 -0.848
-7.386 -7.186 -0.265
-9.496 -8.843 -0.848
-10.683 -8.986 -1.737
-10.683 -8.986 -1.737
-11.606 -8.158 -3.552
-9.496 -8.843 -0.848
-8.101 -8.907 0.770
-8.694 -8.821 0.120
-8.101 -8.907 0.770
-9.059 -8.104 -0.996
-13.237 -9.165 -4.221
-10.527 -8.738 -2.115
-9.496 -8.843 -0.848
-8.630 -8.959 0.329
-8.242 -7.410 -0.917
-9.849 -9.775 -0.076
-7.331 -8.584 1.254
-9.368 -8.971 -0.398
-7.683 -8.306 0.620
-9.344 -8.972 -0.374
-7.793 -7.523 -0.293
-8.025 -7.994 -0.031
-11.622 -8.720 -3.015
-8.694 -8.821 0.120
-9.368 -8.971 -0.398
-9.496 -8.843 -0.848
-13.237 -9.165 -4.221
-10.683 -8.986 -1.737
-11.606 -8.158 -3.552
-9.326 -8.763 -0.575
-8.242 -7.410 -0.917
-7.439 -7.963 0.511
-8.822 -8.821 -0.004
-9.388 -8.765 -0.633
-7.419 -7.318 -0.119
-9.422 -9.234 -0.263
-8.822 -8.821 -0.004
-11.573 -8.725 -2.962
-10.527 -8.738 -2.115
-9.849 -9.775 -0.076
-8.101 -8.907 0.769
-9.368 -8.971 -0.398
-9.475 -8.835 -0.844
-7.554 -8.009 0.428
-9.422 -9.234 -0.263
-9.422 -9.234 -0.263
-6.492 -7.200 0.707
-9.343 -8.972 -0.373
-9.496 -8.843 -0.848
-9.364 -8.971 -0.394
-9.475 -8.835 -0.844
-7.793 -7.523 -0.293
-11.606 -8.158 -3.552
-7.650 -7.279 -0.400
-9.496 -8.843 -0.848
-9.368 -8.971 -0.398
-10.683 -8.986 -1.737
-9.849 -9.775 -0.076
-8.242 -7.410 -0.916
-9.364 -8.971 -0.394
-13.237 -9.165 -4.221
-9.422 -9.234 -0.263
-9.066 -8.100 -1.009
-8.737 -9.079 0.341
-10.527 -8.738 -2.115
-8.661 -8.683 0.021
-8.378 -8.471 0.083
-9.059 -8.104 -0.996
-6.524 -6.741 0.216
-10.527 -8.738 -2.115
-9.388 -8.765 -0.633
-8.762 -9.717 0.921
-8.700 -8.502 -0.198
-8.923 -8.016 -0.939
-8.378 -8.471 0.083
-9.344 -8.972 -0.374
-8.378 -8.471 0.083
-10.526 -8.741 -2.112
-13.237 -9.165 -4.221
-13.237 -9.165 -4.221
-9.365 -8.971 -0.395
-10.527 -8.741 -2.114
-8.025 -7.994 -0.031
-9.368 -8.971 -0.398
-7.419 -7.318 -0.119
-9.849 -9.775 -0.076
-8.762 -9.717 0.921
-8.411 -9.284 0.870
-8.822 -8.821 -0.004
-8.242 -7.410 -0.916
-9.059 -8.104 -0.996
-9.320 -8.626 -0.715
-9.496 -8.843 -0.848
-9.364 -8.971 -0.394
-9.374 -8.075 -1.299
-9.059 -8.104 -0.996
-6.491 -7.200 0.707
-8.411 -9.284 0.870
-8.098 -8.435 0.337
-7.697 -8.262 0.534
-7.324 -7.142 -0.618
-7.683 -8.306 0.620
-10.689 -8.971 -1.759
-9.496 -8.843 -0.848
-8.025 -7.994 -0.031
-10.563 -8.707 -2.187
-9.388 -8.765 -0.633
-8.101 -8.907 0.770
-8.378 -8.471 0.083
-8.151 -9.236 1.055
-10.526 -8.741 -2.112
-8.101 -8.907 0.770
-9.306 -8.628 -0.699
-10.527 -8.738 -2.115
-8.098 -8.435 0.337
-9.343 -8.972 -0.373
-7.554 -8.009 0.428
-10.527 -8.738 -2.115
-6.491 -7.200 0.707
-8.130 -7.431 -0.788
-10.527 -8.738 -2.115
-9.320 -8.626 -0.716
-9.306 -8.628 -0.699
-9.368 -8.971 -0.398
-10.643 -8.978 -1.706
-8.700 -8.502 -0.198
-7.966 -8.429 0.465
-7.439 -7.965 0.513
-8.822 -8.821 -0.004
-8.101 -8.907 0.769
-9.059 -8.104 -0.996
-8.700 -8.502 -0.198
-8.242 -7.410 -0.917
-8.694 -8.821 0.120
-8.378 -8.471 0.083
-11.606 -8.158 -3.552
-9.344 -8.972 -0.374
-9.849 -9.775 -0.076
-13.237 -9.165 -4.221
-8.737 -9.079 0.341
-9.475 -8.835 -0.845
-9.344 -8.972 -0.374
-9.320 -8.626 -0.716
-8.101 -8.907 0.769
-9.368 -8.971 -0.398
-8.242 -7.410 -0.917
-9.364 -8.971 -0.394
-7.226 -7.568 0.324
-9.021 -9.074 0.040
-7.697 -8.261 0.534
-9.849 -9.775 -0.076
-9.849 -9.775 -0.076
-10.524 -8.742 -2.109
-7.697 -8.261 0.534
-9.344 -8.972 -0.374
-7.331 -8.584 1.254
-11.606 -8.158 -3.552
-6.338 -6.970 0.633
-7.554 -8.009 0.428
-8.101 -8.907 0.770
-11.573 -8.725 -2.962
-9.364 -8.971 -0.395
-8.101 -8.907 0.770
-13.237 -9.165 -4.221
-11.573 -8.725 -2.962
-8.661 -8.683 0.021
-7.434 -7.519 0.076
-8.923 -8.016 -0.939
-8.437 -8.854 0.410
-10.526 -8.741 -2.112
-9.344 -8.972 -0.374
-9.344 -8.972 -0.374
-8.411 -9.284 0.870
-7.650 -7.279 -0.400
-9.306 -8.628 -0.699
-7.347 -8.730 1.379
-9.319 -8.626 -0.715
-9.306 -8.628 -0.699
-8.378 -8.471 0.083
-9.320 -8.626 -0.716
-7.419 -7.318 -0.119
-9.344 -8.972 -0.374
-9.496 -8.843 -0.848
-8.242 -7.410 -0.917
-9.012 -9.077 0.052
-9.326 -8.763 -0.575
-7.554 -8.009 0.428
-8.411 -9.284 0.870
-10.689 -8.971 -1.758
-9.306 -8.628 -0.699
-9.056 -8.104 -0.994
-9.280 -8.626 -0.677
-8.378 -8.471 0.083
-9.059 -8.104 -0.996
-7.439 -7.964 0.512
-6.340 -7.142 0.800
-9.849 -9.775 -0.076
-7.650 -7.279 -0.401
-9.368 -8.971 -0.398
-11.606 -8.158 -3.552
-7.554 -8.009 0.428
-9.231 -9.412 0.168
-7.650 -7.279 -0.401
-8.700 -8.502 -0.198
-9.344 -8.972 -0.374
-7.650 -7.279 -0.400
-6.491 -7.200 0.707
-8.700 -8.502 -0.198
-9.059 -8.104 -0.996
-7.554 -8.009 0.428
-9.849 -9.775 -0.076
-8.421 -8.858 0.430
-9.306 -8.628 -0.699
-8.101 -8.907 0.769
-8.130 -7.431 -0.788
-8.694 -8.821 0.120
-7.683 -8.306 0.619
-9.320 -8.626 -0.716
-8.694 -8.821 0.120
-10.526 -8.741 -2.112
-13.237 -9.165 -4.221
-10.527 -8.741 -2.114
-8.130 -7.431 -0.788
-7.226 -7.568 0.324
-9.422 -9.234 -0.263
-7.793 -7.522 -0.294
-8.130 -7.431 -0.788
-8.761 -7.923 -0.931
-9.306 -8.628 -0.699
-9.344 -8.972 -0.373
-9.059 -8.104 -0.996
-8.242 -7.410 -0.917
-10.527 -8.738 -2.115
-6.491 -7.200 0.707
-7.554 -8.009 0.428
-7.650 -7.279 -0.400
-9.344 -8.972 -0.374
-6.340 -7.142 0.800
-7.227 -7.568 0.324
-10.525 -8.742 -2.111
-7.439 -7.965 0.513
-8.242 -7.410 -0.917
-8.242 -7.410 -0.917
-10.527 -8.738 -2.115
-9.306 -8.628 -0.699
-9.320 -8.626 -0.715
-7.996 -8.434 0.440
-8.899 -8.206 -0.734
-9.368 -8.971 -0.398
-9.363 -8.083 -1.280
-8.101 -8.907 0.769
-10.683 -8.986 -1.737
-8.101 -8.907 0.769
-8.242 -7.410 -0.917
-9.326 -8.763 -0.575
-7.419 -7.318 -0.119
-8.101 -8.907 0.769
-6.340 -7.142 0.800
-6.340 -7.142 0.800
-7.966 -8.429 0.465
-7.324 -7.142 -0.618
-9.344 -8.972 -0.374
-9.344 -8.972 -0.374
-8.221 -7.846 -0.401
-9.306 -8.628 -0.699
-8.737 -9.079 0.341
-9.320 -8.626 -0.716
-8.378 -8.471 0.083
-8.687 -8.146 -0.610
-13.237 -9.165 -4.221
-6.465 -6.826 0.352
-8.242 -7.410 -0.917
-7.419 -7.318 -0.119
-7.966 -8.429 0.465
-8.242 -7.410 -0.917
-9.306 -8.628 -0.699
-8.378 -8.471 0.083
-8.283 -7.397 -0.975
-9.475 -8.835 -0.845
-8.378 -8.471 0.083
-6.491 -7.441 0.950
-7.650 -7.279 -0.401
-10.525 -8.742 -2.111
-8.700 -8.502 -0.198
-9.344 -8.972 -0.374
-10.525 -8.742 -2.111
-7.554 -8.009 0.428
-8.700 -8.502 -0.198
-11.606 -8.158 -3.552
-8.222 -7.846 -0.401
-9.306 -8.628 -0.699
-7.650 -7.279 -0.400
-8.242 -7.410 -0.917
-8.101 -8.907 0.770
-9.059 -8.104 -0.996
-7.650 -7.279 -0.400
-8.378 -8.471 0.083
-9.320 -8.626 -0.716
-7.966 -8.429 0.465
-7.419 -7.318 -0.119
-8.242 -7.410 -0.917
-7.650 -7.279 -0.401
-9.035 -8.094 -0.983
-7.434 -7.519 0.076
-8.242 -7.410 -0.917
-9.849 -9.775 -0.076
-13.237 -9.165 -4.221
-8.436 -8.855 0.412
-7.887 -8.217 0.279
-7.650 -7.279 -0.400
-7.650 -7.279 -0.400
-7.683 -8.306 0.620
-8.411 -9.284 0.870
-6.344 -7.097 0.750
-7.857 -7.990 0.129
-9.306 -8.628 -0.699
-8.130 -7.431 -0.788
-8.243 -7.410 -0.917
-7.697 -8.261 0.534
-8.285 -7.397 -0.977
-11.606 -8.158 -3.552
-7.419 -7.318 -0.119
-6.341 -7.142 0.800
-8.243 -7.410 -0.917
-7.554 -8.009 0.428
-8.243 -7.410 -0.917
-7.651 -7.279 -0.401
-8.803 -8.821 0.017
-8.229 -7.850 -0.403
-7.650 -7.279 -0.400
-7.419 -7.318 -0.118
-8.378 -8.471 0.083
-10.563 -8.707 -2.187
-8.222 -7.846 -0.401
-9.326 -8.763 -0.575
-8.283 -7.397 -0.975
-7.650 -7.279 -0.400
-8.242 -7.410 -0.917
-7.226 -7.568 0.324
-9.475 -8.835 -0.844
-7.439 -7.966 0.514
-9.320 -8.626 -0.716
-11.573 -8.725 -2.962
-8.694 -8.821 0.120
-8.242 -7.410 -0.917
-8.242 -7.410 -0.917
-7.226 -7.568 0.324
-10.527 -8.738 -2.115
-7.962 -8.430 0.469
-9.374 -8.075 -1.299
-8.101 -8.907 0.769
-7.532 -7.318 -0.244
-9.066 -8.100 -1.008
-8.067 -8.903 0.801
-7.419 -7.318 -0.119
-6.524 -6.741 0.215
-8.242 -7.410 -0.916
-8.242 -7.410 -0.916
-7.419 -7.318 -0.119
-8.242 -7.410 -0.916
-9.320 -8.626 -0.715
-8.737 -9.079 0.341
-7.650 -7.279 -0.400
-7.683 -8.306 0.620
-7.650 -7.279 -0.400
-7.650 -7.279 -0.400
-8.378 -8.471 0.083
-10.527 -8.738 -2.115
-7.181 -8.845 1.588
-6.339 -7.141 0.801
-7.439 -7.963 0.511
-7.439 -7.966 0.514
-9.320 -8.626 -0.716
-8.151 -9.236 1.055
-10.526 -8.741 -2.112
-9.320 -8.626 -0.716
-8.804 -8.821 0.016
-8.101 -8.907 0.770
-8.229 -7.850 -0.404
-7.227 -7.568 0.323
-7.106 -6.891 -0.218
-8.694 -8.821 0.120
-8.437 -8.855 0.411
-7.554 -8.009 0.428
-7.650 -7.279 -0.400
-7.771 -7.758 -0.094
-7.419 -7.318 -0.118
-9.368 -8.971 -0.398
-7.419 -7.318 -0.118
-8.284 -7.397 -0.976
-7.650 -7.279 -0.400
-8.101 -8.907 0.770
-8.694 -8.821 0.120
-7.235 -7.568 0.316
-7.419 -7.318 -0.118
-8.284 -7.397 -0.976
-8.284 -7.397 -0.976
-8.242 -7.410 -0.916
-8.284 -7.397 -0.976
-9.059 -8.105 -0.996
-7.559 -8.007 0.421
-8.101 -8.907 0.770
-8.284 -7.397 -0.976
-8.284 -7.397 -0.976
-8.242 -7.410 -0.916
-7.650 -7.279 -0.400
-7.226 -7.568 0.324
-7.449 -7.304 -0.166
-7.650 -7.279 -0.400
-8.101 -8.907 0.770
-7.653 -7.254 -0.432
-8.242 -7.410 -0.916
-7.226 -7.568 0.324
-6.266 -6.647 0.375
-9.059 -8.104 -0.996
-7.434 -7.519 0.076
-8.283 -7.397 -0.974
-9.306 -8.628 -0.699
-8.284 -7.397 -0.976
-8.430 -8.856 0.419
-12.937 -9.207 -3.868
-9.056 -8.104 -0.994
-8.225 -7.413 -0.898
-8.700 -8.502 -0.197
-12.853 -9.184 -3.811
-7.222 -7.568 0.328
-7.681 -8.306 0.622
-7.639 -7.258 -0.415
-9.229 -8.156 -1.089
-7.636 -7.283 -0.383
-6.264 -6.647 0.377
-8.225 -7.413 -0.898
-8.148 -9.228 1.052
-7.428 -7.519 0.082
-7.438 -7.309 -0.151
-7.438 -7.309 -0.151
-7.554 -8.009 0.427
-7.637 -7.260 -0.411
-6.330 -7.139 0.808
-8.071 -8.902 0.797
-7.438 -7.309 -0.151
-7.438 -7.309 -0.151
-8.171 -7.419 -0.845
-7.652 -7.256 -0.429
-8.072 -8.902 0.795
-8.437 -8.854 0.410
-9.059 -8.104 -0.997
-8.744 -9.080 0.336
-8.694 -8.821 0.120
-7.235 -7.568 0.316
-7.651 -7.279 -0.401
-8.285 -7.397 -0.977
-7.887 -8.217 0.279
-9.320 -8.626 -0.716
-6.391 -7.002 0.606
-7.559 -8.007 0.420
-9.320 -8.626 -0.716
-8.285 -7.397 -0.977
-7.559 -8.010 0.424
-6.266 -6.647 0.374
-9.849 -9.775 -0.076
-8.286 -7.396 -0.978
-8.075 -8.901 0.791
-13.237 -9.165 -4.221
-8.286 -7.396 -0.978
-6.032 -6.146 0.112
-8.411 -9.284 0.870
-7.558 -8.007 0.421
-9.023 -7.930 -1.163
-8.284 -7.397 -0.975
-6.266 -6.647 0.375
-9.319 -8.626 -0.715
-8.073 -8.902 0.794
-7.558 -8.007 0.421
-6.463 -7.397 0.934
-7.227 -7.568 0.324
-8.284 -7.397 -0.975
-8.243 -7.410 -0.917
-8.285 -7.397 -0.977
-7.226 -7.568 0.324
-8.285 -7.397 -0.977
-7.651 -7.279 -0.401
-8.074 -8.901 0.793
-7.449 -7.304 -0.167
-7.559 -8.007 0.420
-7.449 -7.304 -0.167
-6.032 -6.146 0.112
-7.449 -7.304 -0.167
-10.562 -8.708 -2.186
-6.339 -7.141 0.802
-9.320 -8.626 -0.716
-7.449 -7.304 -0.167
-7.449 -7.304 -0.167
-7.559 -8.007 0.420
-8.285 -7.397 -0.977
-8.285 -7.397 -0.977
-10.562 -8.708 -2.185
-6.480 -7.447 0.964
-9.234 -8.156 -1.093
-7.559 -8.007 0.420
-8.074 -8.901 0.793
-7.559 -8.007 0.420
-6.032 -6.146 0.112
-8.285 -7.397 -0.977
-7.559 -8.007 0.420
-8.378 -8.471 0.083
-7.434 -7.519 0.076
-11.606 -8.158 -3.552
-6.032 -6.146 0.112
-10.563 -8.708 -2.186
-6.266 -6.646 0.374
-10.563 -8.708 -2.186
-7.450 -7.304 -0.168
-7.361 -7.144 -0.679
-7.228 -7.568 0.322
-8.243 -7.410 -0.917
-8.285 -7.397 -0.977
-7.226 -7.568 0.324
-7.226 -7.568 0.324
-7.654 -7.254 -0.433
-9.320 -8.626 -0.716
-8.102 -8.907 0.769
-9.320 -8.626 -0.716
-10.562 -8.708 -2.186
-6.032 -6.146 0.112
-7.651 -7.279 -0.401
-7.226 -7.568 0.324
-8.285 -7.397 -0.977
-8.285 -7.397 -0.977
-7.559 -8.007 0.420
-7.559 -8.007 0.420
-9.320 -8.626 -0.716
-8.149 -9.228 1.051
-8.285 -7.397 -0.977
-7.226 -7.568 0.324
-6.266 -6.647 0.374
-8.243 -7.410 -0.917
-7.559 -8.007 0.420
-6.032 -6.146 0.112
-5.984 -6.718 0.706
-6.032 -6.146 0.112
-7.107 -6.891 -0.218
-8.429 -8.856 0.420
-6.032 -6.146 0.112
-6.465 -6.825 0.351
-6.032 -6.146 0.112
-8.285 -7.397 -0.977
-8.285 -7.397 -0.977
-8.285 -7.397 -0.977
-7.559 -7.985 0.397
-8.285 -7.397 -0.977
-6.032 -6.146 0.112
-7.449 -7.304 -0.167
-9.234 -8.156 -1.093
-8.285 -7.397 -0.977
-9.374 -8.075 -1.299
-8.285 -7.397 -0.977
-13.237 -9.165 -4.221
-7.450 -7.304 -0.168
-7.654 -7.254 -0.433
-7.234 -7.568 0.316
-7.361 -7.144 -0.679
-7.361 -7.144 -0.679
-7.561 -8.007 0.419
-11.573 -8.725 -2.962
-8.431 -8.855 0.418
-8.285 -7.397 -0.977
-8.125 -8.507 0.366
-8.125 -8.507 0.366
-8.744 -9.080 0.335
-8.074 -8.902 0.793
-7.559 -8.007 0.420
-6.021 -6.350 0.323
-7.653 -7.254 -0.432
-8.285 -7.397 -0.977
-8.285 -7.397 -0.977
-7.449 -7.304 -0.167
-7.559 -8.005 0.419
-8.074 -8.902 0.793
-8.074 -8.902 0.793
-6.465 -6.825 0.351
-8.082 -9.262 1.171
-8.074 -8.902 0.793
-6.032 -6.146 0.112
-6.465 -6.825 0.351
-8.285 -7.397 -0.977
-8.285 -7.397 -0.977
-8.285 -7.397 -0.977
-5.485 -6.197 0.715
-8.285 -7.397 -0.977
-7.653 -7.254 -0.432
-7.360 -7.144 -0.678
-7.449 -7.304 -0.167
-6.266 -6.647 0.375
-8.285 -7.397 -0.977
-8.074 -8.902 0.793
-8.285 -7.397 -0.977
-10.563 -8.708 -2.186
-8.285 -7.397 -0.977
-7.449 -7.304 -0.167
-7.653 -7.254 -0.432
-9.320 -8.626 -0.716
-6.266 -6.647 0.375
-7.887 -8.217 0.279
-7.318 -7.793 0.446
-7.887 -8.217 0.279
-7.887 -8.217 0.279
-6.839 -7.078 0.180
-7.887 -8.217 0.279
-6.839 -7.078 0.180
-7.318 -7.793 0.446
-7.387 -7.791 0.373
-8.431 -8.855 0.418
-6.524 -6.741 0.216
-7.897 -8.212 0.264
-6.843 -7.076 0.174
-6.843 -7.076 0.174
-7.897 -8.212 0.264
-7.235 -7.558 0.274
-6.311 -6.405 0.056
-7.897 -8.212 0.264
-6.524 -6.741 0.216
-7.897 -8.212 0.264
-6.311 -6.405 0.056
-6.506 -6.641 0.134
-6.308 -6.497 0.184
-7.229 -7.568 0.322
-6.524 -6.741 0.216
-6.265 -6.558 0.262
-5.778 -6.297 0.517
-6.308 -6.497 0.184
-8.431 -8.855 0.418
-7.325 -7.789 0.436
-6.255 -6.407 0.081
-6.843 -7.076 0.174
-6.304 -6.413 0.082
-6.344 -6.574 0.219
-6.265 -6.558 0.262
-6.265 -6.558 0.262
-6.524 -6.741 0.216
-7.897 -8.212 0.264
-8.431 -8.855 0.418
-8.431 -8.859 0.421
-6.205 -6.022 -0.188
-6.843 -7.076 0.174
-6.843 -7.076 0.174
-6.265 -6.558 0.262
-7.897 -8.212 0.264
-9.122 -7.923 -1.760
-6.308 -6.497 0.184
-7.886 -8.217 0.280
-6.455 -6.829 0.366
-6.307 -6.498 0.186
-6.307 -6.498 0.186
-6.254 -6.566 0.282
-6.458 -6.585 0.116
-6.358 -6.571 0.202
-6.056 -6.308 0.246
-5.841 -5.851 0.001
-6.820 -7.193 0.303
-7.886 -8.217 0.280
-6.292 -6.422 0.103
-5.416 -5.580 0.159
-6.318 -6.494 0.170
-6.318 -6.494 0.170
-6.839 -7.078 0.181
-7.886 -8.217 0.280
-6.455 -6.829 0.365
-6.641 -6.614 -0.036
-5.635 -5.710 0.075
-8.472 -8.850 0.372
-6.318 -6.494 0.170
-9.119 -7.924 -1.754
-6.293 -6.422 0.102
-6.320 -6.402 0.043
-6.320 -6.402 0.043
-6.320 -6.402 0.043
-5.820 -6.295 0.472
-6.262 -6.405 0.071
-5.777 -6.297 0.518
-6.304 -6.413 0.082
-6.320 -6.402 0.043
-5.820 -6.295 0.472
-5.448 -5.670 0.205
-9.121 -7.923 -1.758
-6.266 -6.558 0.261
-5.447 -5.678 0.211
-5.591 -5.602 0.006
-7.276 -7.564 0.273
-6.320 -6.402 0.043
-6.646 -6.210 -0.468
-6.304 -6.413 0.082
-7.324 -7.790 0.437
-6.318 -6.494 0.170
-5.697 -5.877 0.171
-7.897 -8.211 0.264
-6.320 -6.402 0.043
-6.359 -6.571 0.201
-6.320 -6.402 0.043
-7.150 -6.351 -0.837
-6.641 -6.614 -0.035
-6.262 -6.405 0.071
-5.635 -5.710 0.074
-7.897 -8.211 0.264
-6.318 -6.494 0.170
-6.266 -6.558 0.261
-8.620 -6.892 -1.763
-6.455 -6.829 0.365
-5.567 -5.602 0.030
-6.455 -6.829 0.365
-6.017 -6.353 0.330
-6.455 -6.829 0.365
-10.571 -8.703 -2.200
-7.324 -7.790 0.437
-6.262 -6.405 0.071
-6.320 -6.402 0.043
-6.513 -6.641 0.127
-6.262 -6.405 0.071
-7.872 -7.048 -0.844
-8.620 -6.892 -1.763
-8.472 -8.850 0.372
-8.472 -8.850 0.372
-6.646 -6.210 -0.468
-6.320 -6.402 0.043
-10.571 -8.703 -2.200
-6.266 -6.558 0.261
-9.044 -7.891 -1.160
-6.262 -6.405 0.071
-6.318 -6.494 0.170
-5.777 -6.297 0.518
-6.419 -6.555 0.125
-6.991 -6.330 -0.713
-7.287 -7.560 0.259
-7.221 -6.325 -0.933
-7.553 -8.007 0.426
-6.269 -6.649 0.374
-8.282 -7.394 -0.977
-6.683 -6.209 -0.512
-6.328 -6.414 0.059
-6.273 -6.556 0.252
-8.069 -8.909 0.805
-6.033 -6.352 0.313
-8.879 -7.199 -1.856
-6.038 -6.149 0.109
-5.994 -6.718 0.695
-6.853 -7.075 0.163
-5.266 -6.211 0.948
-6.328 -6.414 0.059
-8.741 -6.754 -2.027
-8.282 -7.394 -0.977
-6.126 -6.302 0.172
-7.240 -7.558 0.270
-6.588 -6.633 0.044
-8.282 -7.394 -0.977
-7.438 -6.194 -1.254
-7.221 -6.325 -0.933
-7.354 -7.146 -0.678
-6.516 -6.734 0.217
-8.282 -7.394 -0.977
-6.415 -6.555 0.128
-6.394 -6.391 -0.042
-8.282 -7.394 -0.977
-6.338 -7.132 0.793
-5.495 -6.286 0.782
-8.282 -7.394 -0.977
-7.901 -8.209 0.257
-7.973 -7.007 -0.985
-7.901 -8.209 0.257
-6.033 -6.352 0.313
-6.516 -6.734 0.217
-6.659 -6.607 -0.061
-6.683 -6.209 -0.512
-7.553 -8.007 0.426
-7.553 -8.007 0.426
-6.853 -7.075 0.163
-6.588 -6.633 0.044
-6.415 -6.555 0.128
-5.495 -6.286 0.782
-7.901 -8.209 0.257
-6.683 -6.209 -0.512
-6.683 -6.209 -0.512
-6.415 -6.555 0.128
-6.683 -6.209 -0.512
-6.451 -6.826 0.366
-6.210 -6.015 -0.200
-4.968 -5.416 0.448
-6.038 -6.149 0.109
-6.226 -7.002 0.767
-6.033 -6.352 0.313
-6.141 -6.590 0.444
-7.447 -7.306 -0.164
-7.447 -7.306 -0.164
-6.304 -6.414 0.082
-7.359 -7.791 0.402
-7.221 -6.325 -0.933
-6.033 -6.352 0.313
-5.495 -6.286 0.782
-6.588 -6.633 0.044
-6.269 -6.649 0.374
-5.266 -6.211 0.948
-7.343 -7.788 0.416
-5.861 -5.844 -0.027
-5.495 -6.286 0.782
-7.438 -6.194 -1.254
-6.033 -6.352 0.313
-8.282 -7.394 -0.977
-7.438 -6.194 -1.254
-6.269 -6.649 0.374
-7.287 -7.560 0.258
-6.451 -6.826 0.366
-6.415 -6.555 0.128
-7.287 -7.560 0.258
-7.447 -7.306 -0.164
-7.447 -7.306 -0.164
-8.386 -7.127 -1.266
-7.287 -7.560 0.258
-6.033 -6.352 0.313
-8.282 -7.394 -0.977
-7.447 -7.306 -0.164
-7.901 -8.209 0.257
-5.809 -6.054 0.244
-6.226 -7.002 0.768
-6.415 -6.555 0.129
-6.033 -6.352 0.313
-8.483 -8.849 0.360
-7.447 -7.306 -0.164
-5.495 -6.286 0.782
-8.483 -8.849 0.360
-5.828 -6.295 0.463
-6.683 -6.209 -0.512
-8.282 -7.394 -0.977
-8.741 -6.754 -2.027
-7.438 -6.194 -1.254
-10.547 -8.757 -2.125
-7.447 -7.306 -0.164
-5.495 -6.286 0.782
-6.532 -7.297 0.764
-7.287 -7.560 0.258
-8.282 -7.394 -0.977
-6.304 -6.414 0.082
-6.269 -6.649 0.374
-7.447 -7.306 -0.164
-6.532 -7.297 0.764
-9.322 -8.624 -0.719
-5.878 -6.080 0.182
-5.994 -6.718 0.695
-9.322 -8.623 -0.720
-6.853 -7.075 0.163
-8.282 -7.394 -0.977
-5.641 -6.991 1.261
-6.532 -7.297 0.764
-6.394 -6.391 -0.042
-7.447 -7.306 -0.164
-6.394 -6.391 -0.042
-6.415 -6.555 0.128
-6.038 -6.149 0.109
-7.901 -8.209 0.257
-6.565 -7.080 0.475
-8.282 -7.394 -0.977
-6.532 -7.297 0.764
-6.516 -6.734 0.217
-6.038 -6.149 0.109
-7.553 -8.007 0.426
-5.809 -6.054 0.244
-6.038 -6.149 0.109
-7.447 -7.306 -0.164
-7.287 -7.560 0.258
-5.861 -5.844 -0.027
-6.683 -6.209 -0.512
-6.516 -6.734 0.217
-6.033 -6.352 0.313
-6.788 -6.431 -0.388
-6.308 -6.401 0.020
-6.226 -7.002 0.767
-8.282 -7.394 -0.977
-6.226 -7.002 0.767
-6.338 -7.132 0.793
-8.282 -7.394 -0.977
-5.994 -6.718 0.695
-8.282 -7.394 -0.977
-5.076 -6.534 1.460
-7.275 -7.564 0.274
-8.268 -7.399 -0.958
-8.268 -7.399 -0.958
-8.268 -7.399 -0.958
-6.834 -6.335 -0.543
-8.268 -7.399 -0.959
-5.476 -6.287 0.802
-5.476 -6.287 0.802
-8.268 -7.399 -0.959
-6.017 -6.353 0.330
-6.359 -6.571 0.201
-7.932 -8.004 -0.034
-6.359 -6.571 0.201
-7.317 -7.793 0.447
-7.561 -8.008 0.420
-4.833 -5.476 0.643
-6.820 -7.193 0.303
-7.637 -7.260 -0.410
-6.455 -6.829 0.365
-6.359 -6.571 0.201
-5.859 -6.087 0.207
-6.319 -6.494 0.169
-6.017 -6.353 0.330
-7.637 -7.260 -0.410
-7.442 -7.313 -0.151
-7.353 -7.146 -0.678
-12.947 -9.197 -3.889
-6.524 -7.302 0.778
-7.647 -7.252 -0.429
-7.977 -7.005 -0.991
-6.038 -6.149 0.109
-8.281 -7.394 -0.977
-5.492 -6.287 0.786
-8.281 -7.394 -0.977
-6.849 -7.077 0.169
-9.321 -8.624 -0.719
-6.394 -6.391 -0.042
-8.749 -6.752 -2.038
-7.447 -7.305 -0.164
-5.860 -5.844 -0.026
-6.222 -7.005 0.774
-6.394 -6.391 -0.042
-7.447 -7.305 -0.164
-7.553 -8.007 0.425
-6.394 -6.391 -0.042
-7.447 -7.305 -0.164
-5.492 -6.287 0.786
-6.415 -6.554 0.128
-6.516 -6.734 0.217
-6.309 -6.400 0.019
-6.524 -7.302 0.778
-6.524 -7.302 0.778
-7.708 -6.438 -1.285
-7.287 -7.560 0.259
-5.594 -5.602 0.003
-8.394 -7.124 -1.277
-6.416 -6.554 0.127
-5.494 -6.286 0.782
-6.269 -6.649 0.374
-8.281 -7.394 -0.977
-8.483 -8.849 0.360
-6.033 -6.352 0.313
-7.977 -7.005 -0.992
-8.069 -8.909 0.804
-7.238 -7.558 0.272
-6.998 -6.327 -0.723
-6.904 -7.022 0.102
-5.494 -6.286 0.782
-5.861 -5.844 -0.027
-8.281 -7.394 -0.977
-6.634 -7.371 0.687
-6.269 -6.649 0.374
-6.788 -6.431 -0.387
-8.710 -7.772 -0.956
-6.033 -6.352 0.313
-5.494 -6.286 0.782
-7.353 -7.146 -0.678
-11.689 -9.125 -2.577
-6.164 -6.690 0.462
-5.494 -6.286 0.782
-6.225 -7.002 0.768
-8.640 -7.943 -0.704
-7.353 -7.146 -0.678
-7.353 -7.146 -0.678
-6.309 -6.400 0.019
-5.877 -6.080 0.183
-10.571 -8.703 -2.199
-7.353 -7.146 -0.678
-8.281 -7.394 -0.977
-6.532 -7.297 0.765
-5.494 -6.286 0.782
-6.516 -6.734 0.217
-5.494 -6.286 0.782
-6.269 -6.649 0.374
-7.287 -7.560 0.258
-5.090 -6.527 1.437
-7.100 -6.894 -0.209
-6.033 -6.352 0.313
-5.570 -5.601 0.026
-7.553 -8.007 0.426
-6.532 -7.297 0.765
-7.447 -7.306 -0.164
-7.768 -7.524 -0.267
-6.532 -7.297 0.765
-7.447 -7.306 -0.163
-8.281 -7.394 -0.977
-8.394 -7.124 -1.277
-8.394 -7.124 -1.277
-6.394 -6.391 -0.043
-8.281 -7.394 -0.977
-7.447 -7.306 -0.164
-7.647 -7.252 -0.429
-5.993 -6.718 0.696
-7.446 -6.191 -1.265
-5.046 -5.846 0.803
-5.429 -5.821 0.393
-6.164 -6.690 0.462
-6.416 -6.554 0.127
-8.281 -7.394 -0.977
-14.576 -11.104 -3.546
-14.576 -11.104 -3.546
-14.576 -11.104 -3.546
-14.523 -11.092 -3.507
-10.861 -10.622 -0.276
-14.592 -11.098 -3.568
-13.663 -12.361 -1.451
-14.813 -11.108 -3.983
-14.813 -11.108 -3.983
-14.717 -11.119 -3.870
-11.592 -11.326 -0.543
-13.576 -12.371 -1.366
-13.751 -11.880 -1.901
-10.864 -10.636 -0.258
-10.862 -10.622 -0.276
-13.576 -12.371 -1.366
-14.813 -11.108 -3.983
-14.538 -11.087 -3.527
-14.869 -11.102 -4.046
-14.591 -11.099 -3.566
-14.655 -11.091 -3.638
-11.152 -10.220 -0.934
-10.862 -10.623 -0.276
-12.261 -11.157 -1.219
-14.658 -11.091 -3.641
-12.113 -11.192 -1.012
-11.157 -10.219 -0.939
-11.154 -10.219 -0.936
-13.758 -11.878 -1.909
-12.261 -11.157 -1.219
-14.543 -11.087 -3.533
-12.261 -11.157 -1.219
-11.686 -10.956 -0.737
-12.115 -11.191 -1.015
-14.543 -11.087 -3.533
-10.384 -9.507 -0.882
-14.873 -11.102 -4.051
-11.157 -10.219 -0.939
-14.757 -11.114 -3.916
-11.686 -10.956 -0.737
-11.154 -10.219 -0.937
-11.908 -11.170 -0.818
-11.794 -11.063 -0.754
-11.686 -10.956 -0.737
-11.794 -11.063 -0.754
-9.465 -9.108 -0.387
-10.864 -10.634 -0.261
-13.758 -11.878 -1.909
-11.157 -10.219 -0.939
-11.157 -10.219 -0.939
-14.660 -11.090 -3.644
-11.834 -10.960 -0.880
-11.157 -10.666 -0.511
-9.316 -9.858 0.541
-14.872 -11.102 -4.050
-14.543 -11.087 -3.534
-11.794 -11.063 -0.754
-11.794 -11.063 -0.754
-11.154 -10.219 -0.937
-9.465 -9.108 -0.387
-14.874 -11.102 -4.052
-11.914 -11.207 -0.801
-10.560 -10.251 -0.310
-9.316 -9.858 0.541
-10.386 -9.507 -0.885
-11.531 -10.949 -0.588
-9.250 -9.835 0.584
-13.584 -12.369 -1.375
-14.660 -11.090 -3.645
-13.584 -12.369 -1.375
-14.818 -11.108 -3.988
-10.824 -10.629 -0.232
-14.723 -11.118 -3.876
-9.467 -9.108 -0.388
-13.585 -12.369 -1.377
-11.688 -10.955 -0.740
-11.686 -10.955 -0.738
-14.758 -11.114 -3.917
-11.157 -10.219 -0.940
-14.660 -11.090 -3.645
-14.873 -11.101 -4.051
-10.384 -9.507 -0.883
-11.154 -10.219 -0.937
-13.964 -10.603 -3.400
-14.723 -11.118 -3.876
-11.646 -10.981 -0.750
-11.590 -10.975 -0.697
-10.560 -10.251 -0.309
-9.310 -9.856 0.545
-11.589 -10.975 -0.697
-11.022 -10.664 -0.375
-13.749 -11.795 -2.005
-11.133 -10.995 -0.143
-12.242 -11.161 -1.195
-10.258 -9.511 -0.752
-11.132 -10.992 -0.145
-14.872 -11.102 -4.050
-14.757 -11.114 -3.916
-11.530 -10.951 -0.584
-14.722 -11.119 -3.875
-13.758 -11.878 -1.910
-14.661 -11.090 -3.645
-14.874 -11.101 -4.052
-14.661 -11.090 -3.645
-14.661 -11.090 -3.645
-14.722 -11.119 -3.875
-13.583 -12.369 -1.374
-11.023 -10.664 -0.375
-10.386 -9.507 -0.885
-11.134 -10.991 -0.148
-13.746 -11.880 -1.896
-10.380 -9.508 -0.877
-10.929 -10.624 -0.335
-10.791 -10.624 -0.198
-9.805 -10.277 0.466
-14.602 -11.079 -3.599
-14.510 -11.097 -3.489
-11.681 -10.956 -0.732
-10.791 -10.624 -0.198
-14.754 -11.114 -3.914
-11.656 -10.960 -0.702
-14.657 -11.090 -3.641
-10.995 -10.226 -0.771
-11.153 -10.219 -0.935
-11.153 -10.219 -0.935
-11.916 -11.163 -0.834
-9.239 -9.828 0.588
-11.790 -11.065 -0.748
-11.679 -10.956 -0.730
-11.904 -11.170 -0.813
-10.556 -10.252 -0.305
-9.453 -9.107 -0.376
-14.719 -11.118 -3.872
-14.871 -11.101 -4.049
-11.153 -10.219 -0.935
-12.257 -11.156 -1.214
-14.759 -11.113 -3.919
-13.587 -12.368 -1.380
-10.993 -10.228 -0.766
-14.115 -11.177 -3.238
-10.999 -10.226 -0.775
-10.387 -9.507 -0.886
-10.870 -10.620 -0.287
-12.116 -11.191 -1.016
-14.142 -11.170 -3.273
-13.753 -11.878 -1.905
-10.423 -10.251 -0.173
-13.970 -10.603 -3.405
-11.127 -10.666 -0.477
-10.429 -10.251 -0.179
-14.149 -11.172 -3.279
-10.806 -10.904 0.090
-13.587 -12.368 -1.379
-11.024 -10.663 -0.377
-11.157 -10.219 -0.940
-10.387 -9.507 -0.886
-11.590 -10.975 -0.697
-13.704 -11.784 -1.974
-11.590 -10.975 -0.698
-11.687 -10.954 -0.739
-10.387 -9.507 -0.886
-11.157 -10.219 -0.940
-10.792 -10.622 -0.200
-11.022 -10.662 -0.377
-10.387 -9.507 -0.886