-10.490 -11.324 0.836
-6.779 -7.813 1.043
-9.728 -11.239 1.525
-6.759 -7.632 0.890
-9.728 -11.240 1.526
-10.490 -11.303 0.816
-6.759 -7.632 0.890
-8.843 -10.457 1.629
-6.759 -7.632 0.890
-9.041 -11.381 2.341
-10.684 -10.447 -0.224
-6.760 -7.633 0.891
-10.030 -11.033 1.011
-10.906 -11.014 0.115
-6.773 -7.810 1.046
-9.009 -11.700 2.694
-6.760 -7.633 0.891
-10.805 -11.346 0.544
-9.704 -11.307 1.606
-6.759 -7.633 0.891
-10.151 -11.069 0.926
-9.704 -11.307 1.606
-6.184 -7.391 1.224
-10.019 -11.037 1.026
-10.488 -11.304 0.818
-6.759 -7.633 0.891
-10.019 -11.037 1.026
-6.759 -7.633 0.891
-6.759 -7.633 0.891
-6.626 -7.791 1.174
-6.759 -7.633 0.890
-6.774 -7.810 1.046
-10.019 -11.037 1.026
-6.774 -7.810 1.046
-6.774 -7.810 1.046
-10.100 -11.184 1.088
-10.684 -10.447 -0.224
-6.760 -7.633 0.891
-6.760 -7.633 0.891
-9.675 -11.301 1.630
-6.202 -7.506 1.313
-8.871 -10.462 1.606
-8.904 -11.195 2.305
-10.030 -11.033 1.011
-10.944 -11.017 0.079
-6.625 -7.792 1.175
-6.610 -7.607 1.014
-9.671 -11.300 1.631
-9.671 -11.300 1.631
-8.930 -10.460 1.546
-6.672 -7.522 0.857
-9.785 -10.774 0.998
-6.760 -7.634 0.891
-6.041 -7.042 1.013
-8.904 -11.195 2.306
-6.625 -7.792 1.175
-10.032 -11.031 1.007
-6.773 -7.810 1.046
-6.773 -7.810 1.046
-6.912 -7.285 0.390
-10.032 -11.031 1.008
-10.805 -11.346 0.544
-6.183 -7.391 1.225
-6.774 -7.810 1.046
-7.505 -8.412 0.923
-6.759 -7.633 0.891
-6.626 -7.792 1.175
-6.183 -7.391 1.225
-10.906 -11.014 0.115
-10.805 -11.346 0.544
-6.558 -7.522 0.972
-6.774 -7.810 1.046
-6.183 -7.391 1.225
-7.508 -8.412 0.920
-6.435 -7.585 1.159
-5.907 -7.129 1.235
-6.876 -7.297 0.436
-6.769 -7.628 0.876
-6.183 -7.391 1.225
-6.236 -6.950 0.728
-6.641 -7.791 1.159
-6.360 -6.992 0.646
-6.609 -7.599 1.007
-6.183 -7.391 1.225
-6.366 -7.656 1.304
-7.570 -8.413 0.858
-10.026 -10.512 0.462
-6.360 -6.992 0.646
-7.507 -8.412 0.920
-6.515 -7.511 1.006
-9.695 -11.306 1.614
-6.108 -6.877 0.785
-5.985 -6.480 0.513
-9.069 -10.290 1.214
-6.558 -7.522 0.971
-10.791 -11.684 0.887
-10.540 -11.303 0.765
-6.759 -7.633 0.891
-6.774 -7.810 1.046
-6.759 -7.633 0.891
-6.183 -7.391 1.225
-6.774 -7.810 1.046
-6.435 -7.585 1.159
-8.656 -10.487 1.844
-10.701 -11.727 1.023
-6.183 -7.391 1.225
-10.488 -11.304 0.818
-6.183 -7.391 1.225
-6.547 -7.521 0.981
-6.641 -7.791 1.159
-6.711 -7.587 0.890
-6.759 -7.632 0.891
-10.018 -11.036 1.026
-9.704 -11.306 1.605
-6.634 -7.524 0.905
-6.436 -7.585 1.157
-6.107 -6.888 0.796
-6.762 -7.301 0.555
-6.201 -7.511 1.318
-10.805 -11.346 0.543
-8.660 -10.489 1.842
-6.877 -7.303 0.442
-6.672 -7.522 0.858
-6.183 -7.391 1.225
-6.626 -7.792 1.174
-6.436 -7.585 1.157
-6.672 -7.522 0.858
-8.856 -10.461 1.619
-5.958 -6.553 0.611
-6.183 -7.391 1.225
-9.575 -11.137 1.568
-8.660 -10.489 1.842
-9.752 -10.530 0.750
-6.641 -7.791 1.159
-6.516 -7.511 1.004
-6.769 -7.628 0.876
-6.610 -7.606 1.014
-6.183 -7.391 1.225
-6.436 -7.585 1.157
-6.641 -7.791 1.159
-7.351 -8.409 1.073
-10.660 -11.734 1.072
-6.541 -7.587 1.054
-6.758 -7.512 0.769
-6.762 -7.302 0.556
-6.914 -7.300 0.402
-6.542 -7.587 1.054
-5.897 -6.905 0.980
-6.770 -7.628 0.876
-6.759 -7.633 0.891
-10.701 -10.946 0.246
-6.877 -7.303 0.441
-6.201 -7.509 1.316
-6.183 -7.391 1.225
-8.926 -10.458 1.548
-6.086 -7.050 0.976
-6.770 -7.628 0.876
-6.547 -7.521 0.981
-6.183 -7.391 1.225
-6.237 -6.951 0.728
-6.183 -7.391 1.225
-9.780 -10.745 0.973
-6.183 -7.391 1.225
-7.351 -8.408 1.073
-6.172 -7.391 1.236
-6.610 -7.607 1.014
-6.360 -6.992 0.645
-6.759 -7.633 0.891
-6.762 -7.303 0.556
-6.541 -7.587 1.053
-5.985 -6.481 0.513
-6.787 -7.305 0.533
-7.504 -8.412 0.924
-9.611 -11.126 1.521
-9.455 -10.583 1.127
-6.635 -7.528 0.908
-6.237 -6.951 0.727
-6.787 -7.304 0.533
-6.787 -7.304 0.533
-6.635 -7.538 0.918
-6.237 -6.951 0.727
-5.883 -6.548 0.681
-6.436 -7.585 1.157
-9.735 -10.776 1.050
-6.172 -7.391 1.236
-7.507 -8.412 0.920
-8.876 -10.460 1.599
-5.878 -7.074 1.214
-6.183 -7.391 1.225
-6.786 -7.305 0.533
-5.984 -7.493 1.516
-5.985 -6.481 0.513
-6.183 -7.391 1.225
-6.626 -7.792 1.175
-6.641 -7.791 1.159
-9.670 -11.310 1.635
-6.877 -7.302 0.441
-9.735 -10.776 1.050
-7.351 -8.408 1.073
-8.967 -11.703 2.738
-6.787 -7.304 0.533
-6.641 -7.791 1.159
-6.213 -7.664 1.465
-10.031 -11.032 1.009
-6.516 -7.512 1.005
-6.759 -7.633 0.892
-6.786 -7.304 0.533
-6.368 -7.660 1.307
-6.635 -7.533 0.913
-8.876 -10.460 1.599
-8.876 -10.460 1.599
-8.659 -10.488 1.842
-6.762 -7.303 0.556
-6.436 -7.585 1.158
-6.366 -7.515 1.167
-6.635 -7.530 0.910
-6.762 -7.302 0.555
-6.610 -7.607 1.014
-6.237 -6.951 0.727
-6.450 -7.588 1.146
-6.183 -7.391 1.225
-6.786 -7.306 0.535
-6.136 -6.868 0.748
-6.762 -7.302 0.556
-6.762 -7.303 0.556
-5.985 -6.481 0.513
-6.183 -7.391 1.225
-7.507 -8.412 0.920
-6.762 -7.303 0.556
-6.355 -7.464 1.124
-6.641 -7.791 1.159
-5.861 -6.487 0.643
-5.787 -6.762 0.993
-6.631 -7.474 0.857
-6.183 -7.391 1.225
-6.237 -6.951 0.728
-5.877 -7.073 1.214
-6.800 -7.298 0.513
-6.914 -7.296 0.398
-6.125 -6.739 0.632
-6.758 -7.512 0.769
-6.183 -7.391 1.225
-6.786 -7.304 0.533
-5.872 -7.075 1.221
-10.789 -11.681 0.887
-6.384 -7.508 1.133
-6.635 -7.544 0.924
-6.156 -7.642 1.500
-5.787 -6.765 0.995
-8.868 -10.456 1.602
-6.354 -7.461 1.122
-9.213 -10.608 1.395
-8.654 -10.486 1.844
-6.173 -7.390 1.235
-6.518 -7.509 1.000
-9.734 -10.774 1.048
-6.650 -7.791 1.150
-6.172 -7.391 1.236
-7.351 -8.408 1.073
-6.567 -7.522 0.963
-6.610 -7.607 1.014
-6.435 -7.585 1.158
-6.236 -6.951 0.728
-5.877 -7.073 1.214
-6.635 -7.524 0.904
-6.633 -7.553 0.935
-7.351 -8.408 1.073
-6.592 -7.477 0.901
-6.154 -7.640 1.500
-6.654 -7.474 0.835
-6.635 -7.551 0.931
-9.608 -10.672 1.061
-6.356 -7.465 1.124
-6.635 -7.539 0.919
-6.156 -7.641 1.500
-5.862 -6.497 0.653
-6.238 -6.951 0.727
-5.496 -6.354 0.832
-8.805 -10.568 1.732
-6.787 -7.304 0.533
-6.290 -6.947 0.671
-6.632 -7.506 0.888
-6.371 -7.662 1.306
-6.787 -7.304 0.533
-6.183 -7.391 1.225
-6.355 -7.464 1.125
-6.513 -7.309 0.812
-6.125 -6.736 0.629
-9.734 -10.783 1.058
-6.355 -7.464 1.125
-5.985 -6.475 0.508
-6.194 -7.657 1.477
-6.635 -7.540 0.920
-5.879 -7.077 1.216
-7.351 -8.408 1.073
-6.436 -7.586 1.158
-6.371 -7.662 1.306
-10.025 -11.029 1.011
-6.642 -7.791 1.158
-8.869 -10.456 1.602
-6.136 -6.874 0.754
-8.869 -10.455 1.602
-6.787 -7.304 0.532
-6.635 -7.532 0.912
-6.762 -7.302 0.555
-6.610 -7.606 1.014
-6.759 -7.286 0.542
-5.985 -6.481 0.513
-6.290 -6.947 0.671
-6.436 -7.586 1.158
-6.371 -7.662 1.306
-6.290 -6.947 0.671
-9.672 -11.148 1.446
-6.642 -7.791 1.158
-6.762 -7.302 0.555
-9.984 -11.027 1.051
-6.655 -7.474 0.834
-6.437 -7.585 1.156
-6.437 -7.585 1.156
-6.125 -6.736 0.629
-5.958 -6.554 0.612
-6.239 -6.951 0.726
-6.763 -7.303 0.556
-6.437 -7.586 1.157
-6.371 -7.661 1.305
-5.878 -7.075 1.215
-6.763 -7.303 0.555
-6.787 -7.303 0.531
-6.634 -7.525 0.906
-10.777 -10.964 0.192
-6.635 -7.537 0.917
-6.291 -6.947 0.671
-8.908 -11.194 2.301
-6.642 -7.791 1.158
-5.877 -7.073 1.214
-5.989 -7.504 1.520
-6.419 -7.463 1.059
-6.355 -7.464 1.125
-8.866 -10.455 1.604
-6.125 -6.736 0.629
-5.985 -6.481 0.513
-5.976 -6.554 0.595
-8.809 -10.567 1.727
-6.635 -7.531 0.911
-6.650 -7.791 1.150
-6.291 -6.947 0.671
-6.627 -7.792 1.173
-6.635 -7.535 0.915
-5.954 -6.992 1.044
-6.291 -6.947 0.671
-6.543 -7.587 1.052
-6.421 -7.461 1.055
-6.136 -6.872 0.752
-5.970 -6.482 0.529
-6.762 -7.303 0.555
-6.437 -7.585 1.156
-8.654 -10.486 1.844
-5.878 -7.074 1.214
-5.861 -6.499 0.655
-6.128 -6.769 0.659
-6.136 -6.873 0.753
-6.635 -7.542 0.922
-5.870 -6.549 0.696
-6.642 -7.791 1.158
-6.642 -7.791 1.158
-8.866 -10.455 1.604
-6.138 -6.802 0.682
-6.243 -7.092 0.813
-6.787 -7.304 0.532
-6.291 -6.947 0.671
-8.654 -10.486 1.844
-5.862 -6.495 0.651
-5.896 -7.107 1.229
-6.437 -7.585 1.156
-6.371 -7.661 1.304
-9.721 -10.803 1.088
-6.593 -7.477 0.899
-6.758 -7.511 0.769
-6.197 -7.657 1.475
-6.291 -6.947 0.671
-9.670 -11.299 1.632
-6.139 -6.850 0.728
-6.762 -7.303 0.555
-6.197 -7.658 1.476
-7.504 -8.412 0.924
-6.801 -7.300 0.515
-7.602 -9.098 1.386
-9.657 -11.327 1.675
-5.798 -6.891 1.108
-6.355 -7.466 1.126
-8.906 -11.194 2.302
-6.762 -7.303 0.555
-5.778 -6.765 1.004
-6.112 -6.736 0.642
-6.635 -7.529 0.910
-5.878 -7.074 1.214
-6.623 -7.594 0.988
-9.569 -11.128 1.565
-6.801 -7.302 0.517
-5.778 -6.765 1.004
-6.762 -7.303 0.556
-6.558 -7.522 0.971
-6.801 -7.300 0.514
-6.437 -7.585 1.156
-6.156 -7.640 1.498
-8.866 -10.456 1.604
-6.762 -7.303 0.555
-6.378 -7.452 1.090
-5.985 -6.481 0.513
-6.642 -7.792 1.158
-5.877 -7.073 1.214
-9.569 -11.128 1.565
-6.437 -7.585 1.156
-6.369 -7.660 1.305
-5.787 -6.759 0.990
-6.369 -7.660 1.305
-6.610 -7.606 1.014
-9.173 -10.584 1.408
-6.291 -6.947 0.671
-6.215 -7.659 1.458
-8.866 -10.455 1.604
-5.970 -6.482 0.529
-6.762 -7.296 0.549
-6.381 -7.464 1.098
-5.871 -6.692 0.836
-8.862 -10.484 1.637
-5.878 -7.073 1.214
-6.354 -7.465 1.126
-8.866 -10.454 1.603
-6.421 -7.463 1.057
-6.633 -7.554 0.936
-6.801 -7.302 0.517
-6.146 -7.089 0.957
-6.635 -7.536 0.916
-6.421 -7.461 1.055
-5.883 -6.547 0.680
-6.632 -7.528 0.910
-6.635 -7.535 0.915
-5.985 -6.481 0.513
-8.868 -10.453 1.600
-6.635 -7.531 0.911
-6.420 -7.461 1.056
-6.157 -7.641 1.498
-5.783 -6.906 1.141
-6.318 -6.948 0.644
-9.733 -10.785 1.061
-6.801 -7.301 0.516
-6.635 -7.537 0.917
-7.351 -8.408 1.073
-6.111 -6.738 0.644
-9.639 -10.656 1.025
-6.437 -7.585 1.156
-6.633 -7.536 0.918
-8.809 -10.566 1.726
-6.355 -7.464 1.124
-6.146 -7.089 0.957
-5.878 -7.074 1.214
-6.762 -7.303 0.555
-6.355 -7.464 1.124
-5.917 -7.013 1.111
-6.801 -7.302 0.517
-6.635 -7.536 0.916
-6.635 -7.536 0.916
-5.883 -6.548 0.681
-6.125 -6.736 0.629
-8.864 -10.441 1.592
-6.108 -6.876 0.783
-8.866 -10.455 1.604
-6.238 -6.951 0.727
-5.870 -6.549 0.696
-6.098 -7.113 1.030
-6.758 -7.513 0.771
-6.798 -7.287 0.505
-6.635 -7.536 0.916
-8.865 -10.459 1.608
-6.098 -7.113 1.030
-6.635 -7.548 0.928
-6.215 -7.658 1.457
-6.787 -7.302 0.531
-6.635 -7.529 0.909
-5.794 -6.891 1.112
-6.635 -7.536 0.916
-6.163 -6.943 0.795
-6.369 -7.456 1.103
-5.787 -6.760 0.990
-5.871 -6.692 0.836
-5.858 -6.503 0.663
-6.154 -7.643 1.503
-6.234 -6.946 0.725
-6.353 -7.464 1.126
-6.624 -7.528 0.919
-6.624 -7.526 0.918
-6.382 -7.510 1.137
-6.796 -7.302 0.521
-5.859 -6.499 0.658
-6.212 -7.660 1.463
-5.884 -6.548 0.680
-5.884 -6.548 0.680
-6.621 -7.531 0.925
-5.873 -7.078 1.223
-6.415 -7.452 1.052
-6.620 -7.530 0.925
-6.623 -7.526 0.918
-9.295 -10.455 1.174
-6.623 -7.526 0.917
-6.000 -6.923 0.938
-5.791 -6.891 1.115
-6.623 -7.529 0.921
-5.827 -6.504 0.695
-6.679 -7.626 0.964
-5.827 -6.504 0.695
-5.741 -6.880 1.154
-6.623 -7.525 0.917
-6.155 -7.642 1.501
-6.623 -7.524 0.915
-6.108 -6.736 0.646
-5.959 -6.553 0.610
-6.354 -7.477 1.138
-6.623 -7.523 0.915
-5.983 -6.481 0.515
-5.780 -6.761 0.998
-6.797 -7.302 0.521
-6.355 -7.468 1.129
-10.766 -11.755 0.984
-6.355 -7.468 1.129
-6.619 -7.605 1.003
-6.153 -7.640 1.501
-10.254 -11.048 0.648
-5.782 -6.761 0.996
-5.782 -6.761 0.996
-9.662 -10.794 1.141
-5.884 -6.547 0.679
-6.154 -7.640 1.500
-6.760 -7.301 0.557
-6.623 -7.603 0.997
-6.316 -6.950 0.648
-5.968 -6.482 0.531
-5.983 -6.481 0.515
-8.810 -10.440 1.645
-6.357 -7.465 1.123
-6.123 -6.735 0.630
-6.626 -7.528 0.916
-6.623 -7.601 0.996
-5.827 -6.503 0.693
-6.355 -7.465 1.125
-6.397 -7.462 1.080
-6.042 -6.548 0.523
-6.153 -6.869 0.732
-8.897 -10.450 1.567
-6.798 -7.301 0.518
-6.153 -7.624 1.487
-5.845 -6.997 1.152
-9.752 -11.167 1.412
-6.626 -7.524 0.912
-8.865 -10.642 1.792
-6.397 -7.462 1.080
-5.782 -6.761 0.996
-7.377 -8.415 1.054
-8.796 -10.363 1.578
-6.683 -7.624 0.958
-6.785 -7.303 0.534
-9.664 -11.172 1.514
-6.235 -6.952 0.731
-6.000 -6.923 0.938
-6.610 -7.607 1.014
-9.322 -10.454 1.145
-9.750 -11.167 1.413
-6.438 -7.585 1.154
-6.627 -7.526 0.914
-6.355 -7.465 1.125
-5.859 -6.498 0.656
-6.626 -7.518 0.906
-6.623 -7.527 0.919
-9.295 -10.457 1.176
-6.626 -7.530 0.918
-6.397 -7.462 1.080
-6.397 -7.462 1.080
-6.153 -7.642 1.503
-6.610 -7.607 1.014
-9.662 -10.793 1.139
-6.355 -7.465 1.125
-6.627 -7.527 0.915
-6.154 -7.669 1.526
-6.397 -7.462 1.080
-6.155 -7.639 1.499
-6.571 -7.522 0.959
-6.045 -6.547 0.519
-6.627 -7.527 0.916
-6.627 -7.526 0.915
-9.746 -11.822 2.073
-6.397 -7.462 1.080
-6.397 -7.462 1.080
-6.626 -7.605 0.997
-6.626 -7.605 0.997
-6.214 -7.659 1.459
-6.074 -7.269 1.193
-6.625 -7.605 0.997
-6.399 -7.463 1.079
-8.811 -10.438 1.642
-6.626 -7.528 0.916
-6.421 -7.461 1.056
-6.316 -6.950 0.648
-5.983 -6.481 0.515
-6.000 -6.923 0.938
-6.398 -7.468 1.084
-6.126 -6.870 0.760
-6.774 -7.288 0.530
-5.875 -7.077 1.220
-5.916 -7.013 1.112
-5.757 -6.851 1.110
-5.757 -6.851 1.110
-5.827 -6.502 0.693
-5.791 -6.891 1.115
-5.916 -7.013 1.112
-5.916 -7.013 1.112
-5.877 -6.693 0.830
-5.741 -6.880 1.153
-6.093 -7.113 1.036
-5.813 -6.970 1.172
-6.093 -7.113 1.036
-5.977 -6.554 0.593
-5.959 -6.553 0.610
-5.741 -6.880 1.153
-5.847 -6.526 0.695
-5.501 -6.718 1.233
-5.792 -6.891 1.115
-5.886 -7.041 1.170
-6.093 -7.113 1.036
-5.813 -6.970 1.172
-5.757 -6.851 1.110
-5.757 -6.851 1.110
-5.813 -6.970 1.172
-5.987 -6.924 0.952
-5.673 -6.767 1.111
-5.757 -6.851 1.110
-5.714 -6.716 1.017
-5.757 -6.851 1.110
-6.093 -7.113 1.036
-5.959 -6.553 0.610
-5.871 -6.549 0.694
-5.847 -6.526 0.695
-5.934 -6.553 0.635
-5.787 -6.672 0.899
-5.871 -6.549 0.694
-5.885 -6.547 0.679
-5.847 -6.526 0.695
-5.813 -6.970 1.172
-5.813 -6.970 1.172
-5.813 -6.970 1.172
-6.093 -7.113 1.036
-5.987 -6.924 0.952
-5.916 -7.013 1.112
-5.987 -6.924 0.952
-5.902 -7.031 1.144
-6.085 -7.101 1.033
-5.987 -6.924 0.952
-5.714 -6.716 1.017
-5.673 -6.767 1.111
-5.788 -7.000 1.224
-5.714 -6.716 1.017
-5.714 -6.716 1.017
-6.093 -7.114 1.037
-9.673 -11.310 1.640
-5.885 -6.547 0.679
-5.757 -6.851 1.110
-5.871 -6.549 0.694
-5.916 -7.013 1.112
-6.093 -7.113 1.036
-6.242 -7.239 1.010
-5.932 -6.554 0.638
-5.902 -7.031 1.144
-6.093 -7.113 1.036
-5.886 -7.041 1.170
-6.042 -6.548 0.523
-5.847 -6.526 0.695
-5.847 -6.526 0.695
-5.959 -6.553 0.610
-5.885 -6.547 0.679
-5.877 -6.500 0.641
-5.789 -6.679 0.905
-5.871 -6.549 0.694
-6.798 -7.301 0.518
-5.847 -6.526 0.695
-5.959 -6.553 0.610
-6.042 -6.548 0.523
-5.886 -7.041 1.170
-5.764 -6.851 1.103
-5.789 -6.679 0.905
-5.673 -6.767 1.111
-5.885 -6.547 0.679
-5.673 -6.767 1.111
-5.986 -6.923 0.951
-6.130 -6.736 0.623
-5.916 -7.013 1.112
-5.730 -6.125 0.412
-5.847 -6.526 0.695
-5.846 -6.509 0.680
-6.000 -6.923 0.938
-6.665 -7.464 0.814
-5.886 -7.041 1.170
-6.093 -7.113 1.036
-5.987 -6.924 0.952
-5.987 -6.924 0.952
-5.916 -7.013 1.112
-5.673 -6.767 1.111
-5.673 -6.768 1.112
-9.703 -11.333 1.632
-5.715 -6.126 0.427
-6.702 -7.585 0.898
-5.673 -6.767 1.111
-6.093 -7.113 1.036
-5.673 -6.767 1.111
-5.962 -7.266 1.320
-6.185 -7.391 1.224
-6.045 -6.548 0.520
-5.871 -6.549 0.694
-5.730 -6.125 0.412
-5.757 -6.851 1.110
-6.891 -8.341 1.412
-5.886 -7.041 1.170
-5.959 -6.553 0.610
-5.987 -6.924 0.952
-5.886 -7.041 1.170
-5.886 -7.041 1.170
-6.000 -6.923 0.938
-6.149 -7.089 0.954
-5.847 -6.526 0.695
-5.891 -7.041 1.165
-5.813 -6.969 1.171
-5.983 -6.481 0.515
-5.791 -6.891 1.115
-5.674 -6.767 1.111
-5.872 -7.075 1.221
-5.884 -6.548 0.680
-5.885 -7.042 1.172
-6.796 -7.303 0.522
-6.044 -6.548 0.520
-6.130 -6.736 0.623
-5.902 -7.032 1.144
-6.758 -7.300 0.558
-5.731 -6.125 0.411
-5.916 -7.013 1.113
-5.713 -6.715 1.017
-5.501 -6.717 1.232
-6.152 -6.880 0.745
-6.093 -7.113 1.036
-6.698 -7.583 0.900
-6.150 -7.089 0.954
-6.152 -7.650 1.513
-5.983 -6.481 0.515
-6.150 -7.089 0.954
-5.792 -6.892 1.115
-5.983 -6.481 0.515
-5.902 -7.031 1.144
-5.902 -7.031 1.144
-6.145 -6.740 0.612
-6.131 -6.736 0.623
-5.916 -7.013 1.112
-5.902 -7.031 1.144
-6.131 -6.736 0.622
-5.673 -6.767 1.111
-6.044 -6.550 0.523
-6.772 -7.303 0.545
-6.042 -6.548 0.523
-5.891 -7.041 1.165
-5.871 -6.549 0.694
-6.438 -7.041 0.620
-6.131 -6.736 0.623
-5.741 -6.880 1.154
-6.042 -6.548 0.523
-6.131 -6.736 0.622
-5.959 -6.553 0.610
-6.002 -7.074 1.087
-5.872 -7.075 1.221
-5.846 -6.526 0.696
-5.902 -7.032 1.144
-6.146 -7.089 0.958
-5.792 -6.892 1.115
-6.093 -7.113 1.036
-5.902 -7.032 1.144
-5.673 -6.767 1.111
-6.093 -7.113 1.036
-6.086 -7.096 1.025
-6.042 -6.548 0.523
-5.884 -6.547 0.679
-6.131 -6.736 0.623
-6.101 -7.114 1.028
-5.983 -6.554 0.587
-5.805 -6.676 0.886
-5.789 -6.679 0.905
-5.987 -6.924 0.952
-5.673 -6.767 1.111
-7.320 -8.467 1.158
-6.146 -7.089 0.958
-5.757 -6.851 1.110
-6.146 -7.089 0.958
-6.131 -6.736 0.623
-6.091 -7.121 1.045
-5.784 -6.997 1.219
-6.790 -7.271 0.497
-5.866 -6.693 0.842
-5.902 -7.031 1.144
-5.610 -6.187 0.594
-5.886 -7.041 1.170
-5.866 -6.693 0.842
-6.093 -7.113 1.036
-5.673 -6.767 1.111
-5.846 -6.526 0.696
-6.796 -7.296 0.516
-5.916 -7.013 1.112
-6.173 -7.643 1.484
-5.610 -6.187 0.594
-6.797 -7.301 0.520
-6.353 -7.477 1.139
-5.959 -6.553 0.610
-5.902 -7.031 1.144
-6.131 -6.736 0.623
-5.858 -6.737 0.896
-6.131 -6.736 0.623
-6.797 -7.302 0.521
-5.610 -6.187 0.594
-6.042 -6.548 0.523
-5.916 -7.014 1.113
-5.757 -6.851 1.110
-6.758 -7.301 0.559
-5.610 -6.187 0.594
-5.884 -6.547 0.679
-6.111 -6.878 0.782
-6.042 -6.548 0.523
-6.042 -6.548 0.523
-6.146 -7.089 0.958
-6.619 -7.604 1.002
-5.916 -7.013 1.112
-5.959 -6.553 0.610
-5.902 -7.031 1.144
-9.010 -11.256 2.234
-6.758 -7.302 0.560
-6.042 -6.548 0.523
-6.699 -7.589 0.905
-5.713 -6.716 1.017
-5.858 -6.737 0.896
-5.994 -6.481 0.504
-6.131 -6.736 0.623
-6.093 -7.113 1.036
-5.994 -6.480 0.504
-5.858 -6.737 0.896
-6.355 -7.468 1.128
-5.610 -6.187 0.594
-6.131 -6.736 0.623
-5.731 -6.125 0.411
-6.042 -6.548 0.523
-8.546 -11.135 2.582
-6.619 -7.604 1.002
-5.846 -6.526 0.696
-5.866 -6.693 0.841
-5.994 -6.480 0.504
-5.846 -6.526 0.696
-5.846 -6.526 0.695
-6.131 -6.736 0.622
-5.984 -6.554 0.587
-5.673 -6.767 1.111
-5.739 -6.887 1.163
-5.610 -6.187 0.594
-8.713 -10.321 1.625
-5.780 -6.760 0.997
-6.758 -7.302 0.560
-5.610 -6.187 0.594
-8.777 -10.453 1.688
-5.846 -6.526 0.695
-5.987 -6.924 0.952
-5.858 -6.737 0.896
-5.872 -7.075 1.221
-6.093 -7.112 1.035
-5.846 -6.526 0.695
-6.758 -7.303 0.560
-6.121 -6.742 0.638
-5.700 -6.693 1.005
-5.906 -7.112 1.223
-6.130 -6.736 0.623
-6.130 -6.736 0.623
-5.610 -6.187 0.594
-6.093 -7.113 1.036
-6.093 -7.113 1.036
-6.130 -6.736 0.623
-5.827 -6.504 0.695
-5.789 -6.679 0.905
-5.871 -6.549 0.694
-5.858 -6.737 0.896
-5.901 -7.032 1.145
-6.130 -6.736 0.623
-5.858 -6.737 0.896
-5.846 -6.526 0.696
-6.042 -6.548 0.523
-5.983 -6.481 0.515
-5.959 -7.266 1.322
-6.131 -6.736 0.623
-9.657 -10.801 1.152
-5.827 -6.504 0.694
-6.131 -6.736 0.622
-6.131 -6.736 0.623
-6.093 -7.113 1.036
-5.789 -6.679 0.905
-6.131 -6.736 0.622
-6.758 -7.303 0.560
-5.987 -6.924 0.952
-5.673 -6.767 1.111
-6.146 -7.089 0.958
-6.355 -7.468 1.128
-5.858 -6.737 0.896
-5.831 -6.890 1.077
-5.673 -6.767 1.111
-5.935 -6.875 0.957
-5.902 -7.031 1.144
-6.108 -6.736 0.646
-5.846 -6.526 0.695
-6.042 -6.548 0.523
-5.916 -7.013 1.112
-5.871 -6.549 0.694
-5.858 -6.737 0.896
-6.131 -6.736 0.623
-5.673 -6.767 1.111
-6.093 -7.113 1.036
-5.858 -6.737 0.896
-6.796 -7.297 0.516
-5.610 -6.187 0.594
-6.448 -7.553 1.114
-6.606 -7.609 1.020
-6.042 -6.548 0.523
-5.792 -6.892 1.115
-4.797 -7.490 2.710
-5.959 -6.553 0.610
-5.716 -6.126 0.427
-6.606 -7.609 1.020
-6.042 -6.548 0.523
-5.959 -7.273 1.329
-6.758 -7.301 0.558
-6.153 -6.872 0.735
-4.606 -5.269 0.680
-6.000 -6.923 0.938
-5.891 -7.041 1.165
-6.093 -7.113 1.036
-5.501 -6.717 1.232
-6.153 -6.872 0.736
-6.458 -7.590 1.141
-6.000 -6.923 0.938
-5.846 -6.526 0.696
-6.150 -7.089 0.954
-5.983 -6.554 0.587
-5.673 -6.767 1.111
-6.698 -7.590 0.906
-4.562 -6.592 2.046
-5.716 -6.126 0.427
-6.758 -7.302 0.559
-6.131 -6.736 0.622
-6.042 -6.548 0.523
-6.698 -7.581 0.897
-8.793 -10.448 1.670
-6.315 -6.951 0.650
-6.620 -7.531 0.925
-5.959 -6.553 0.610
-6.570 -7.523 0.960
-9.295 -10.455 1.173
-6.061 -6.533 0.489
-6.153 -6.871 0.735
-5.716 -6.126 0.427
-5.700 -6.693 1.006
-6.146 -7.089 0.958
-5.959 -6.553 0.610
-5.959 -6.553 0.610
-5.673 -6.767 1.111
-5.716 -6.126 0.427
-6.093 -7.116 1.039
-6.742 -7.297 0.570
-6.092 -7.113 1.037
-5.699 -6.693 1.007
-5.673 -6.767 1.111
-8.847 -10.701 1.808
-6.092 -7.114 1.038
-5.611 -6.188 0.594
-5.858 -6.737 0.896
-5.699 -6.693 1.007
-6.213 -7.660 1.461
-5.883 -6.499 0.633
-6.619 -7.521 0.915
-5.968 -6.482 0.531
-5.866 -6.693 0.842
-6.131 -6.736 0.622
-6.569 -7.519 0.957
-5.700 -6.693 1.006
-5.858 -6.737 0.896
-8.614 -10.303 1.700
-6.041 -6.548 0.523
-6.145 -7.089 0.958
-5.610 -6.187 0.594
-6.797 -7.302 0.521
-5.858 -6.737 0.896
-9.692 -11.338 1.648
-6.617 -7.481 0.879
-6.146 -7.089 0.958
-5.757 -6.851 1.110
-6.042 -6.548 0.523
-6.093 -7.114 1.037
-5.875 -6.693 0.833
-5.968 -6.482 0.531
-5.670 -7.547 1.877
-6.108 -7.627 1.535
-6.042 -6.548 0.523
-5.713 -6.716 1.018
-6.795 -7.289 0.510
-6.796 -7.306 0.525
-5.713 -6.716 1.018
-6.071 -6.549 0.494
-6.758 -7.303 0.560
-5.700 -6.693 1.005
-5.757 -6.851 1.110
-6.564 -8.188 1.632
-7.368 -8.416 1.064
-6.042 -6.548 0.523
-6.131 -6.736 0.622
-5.673 -6.767 1.111
-5.983 -6.554 0.587
-5.673 -6.767 1.111
-9.415 -10.635 1.168
-6.042 -6.548 0.523
-6.042 -6.548 0.523
-5.872 -7.074 1.221
-5.968 -6.482 0.531
-6.108 -6.737 0.647
-6.093 -7.109 1.032
-6.288 -6.951 0.677
-5.858 -6.737 0.896
-5.858 -6.737 0.896
-5.471 -6.695 1.241
-5.968 -6.482 0.531
-6.665 -7.635 0.987
-6.131 -6.736 0.622
-6.093 -7.113 1.036
-6.042 -6.548 0.523
-6.606 -7.609 1.020
-5.875 -6.693 0.833
-5.716 -6.126 0.427
-5.846 -6.526 0.695
-5.968 -6.482 0.531
-6.797 -7.302 0.521
-6.042 -6.548 0.523
-6.623 -7.523 0.915
-6.146 -7.089 0.958
-6.592 -7.619 1.045
-6.102 -6.746 0.661
-6.121 -6.736 0.633
-6.797 -7.302 0.521
-6.629 -7.801 1.180
-5.987 -6.924 0.952
-5.959 -7.270 1.326
-5.968 -6.482 0.531
-6.131 -6.736 0.623
-6.758 -7.303 0.560
-6.131 -6.736 0.623
-5.748 -6.124 0.393
-5.902 -7.031 1.144
-9.657 -10.801 1.152
-6.042 -6.548 0.523
-5.886 -7.041 1.170
-6.131 -6.736 0.622
-6.042 -6.548 0.523
-5.713 -6.716 1.017
-5.846 -6.526 0.695
-5.858 -6.737 0.896
-5.958 -7.292 1.349
-6.236 -6.955 0.733
-5.713 -6.716 1.018
-6.620 -7.511 0.906
-6.758 -7.305 0.562
-6.757 -7.291 0.550
-6.623 -7.526 0.917
-6.093 -7.114 1.037
-6.213 -7.657 1.458
-5.791 -6.893 1.116
-5.885 -6.547 0.679
-5.874 -7.078 1.222
-5.700 -6.693 1.006
-6.041 -6.543 0.518
-9.184 -10.325 1.150
-5.983 -6.554 0.587
-5.871 -6.549 0.694
-6.618 -7.510 0.907
-6.521 -8.067 1.560
-6.758 -7.302 0.559
-5.858 -6.737 0.896
-9.295 -10.455 1.173
-6.093 -7.113 1.036
-6.758 -7.303 0.560
-6.797 -7.302 0.521
-6.797 -7.302 0.521
-5.959 -6.553 0.610
-9.618 -10.809 1.199
-9.655 -10.803 1.157
-5.983 -6.554 0.587
-6.173 -7.642 1.483
-6.758 -7.302 0.560
-4.487 -5.268 0.800
-5.846 -6.526 0.695
-5.700 -6.693 1.005
-6.731 -7.296 0.580
-6.146 -7.088 0.957
-5.684 -7.600 1.930
-6.745 -7.384 0.651
-6.042 -6.548 0.523
-6.757 -7.302 0.560
-5.846 -6.526 0.695
-5.869 -7.070 1.219
-5.780 -6.760 0.997
-5.875 -6.692 0.832
-6.131 -6.736 0.622
-8.859 -10.612 1.767
-5.772 -6.764 1.009
-5.344 -6.396 1.069
-6.606 -7.609 1.020
-6.042 -6.548 0.523
-6.154 -7.641 1.501
-5.884 -6.547 0.679
-6.772 -7.300 0.543
-6.315 -6.951 0.650
-6.556 -8.195 1.649
-5.700 -6.693 1.006
-6.623 -7.526 0.918
-6.106 -6.750 0.661
-6.391 -7.420 1.042
-5.833 -6.471 0.656
-6.758 -7.300 0.558
-6.172 -7.643 1.485
-5.846 -6.526 0.695
-5.673 -6.767 1.111
-6.172 -7.642 1.484
-6.131 -6.736 0.623
-6.797 -7.302 0.521
-5.858 -6.737 0.896
-8.726 -10.293 1.565
-6.093 -7.112 1.035
-6.131 -6.736 0.622
-5.772 -6.766 1.011
-5.610 -6.187 0.594
-6.131 -6.736 0.622
-6.758 -7.302 0.559
-6.570 -8.195 1.635
-5.713 -6.716 1.017
-5.789 -6.679 0.905
-4.832 -5.574 0.759
-5.312 -6.046 0.749
-5.029 -5.779 0.764
-5.479 -6.264 0.801
-4.757 -5.804 1.063
-5.376 -6.445 1.079
-5.029 -5.779 0.764
-4.299 -5.517 1.231
-5.376 -6.446 1.080
-4.824 -5.815 1.008
-6.772 -7.300 0.543
-4.757 -5.804 1.063
-4.854 -5.574 0.737
-4.757 -5.804 1.063
-5.479 -6.265 0.801
-6.628 -7.519 0.906
-5.164 -5.651 0.502
-4.992 -5.704 0.725
-5.789 -6.593 0.798
-4.824 -5.815 1.008
-4.861 -5.710 0.866
-4.727 -5.826 1.115
-4.991 -5.703 0.726
-6.125 -6.874 0.765
-6.397 -7.465 1.083
-5.312 -6.046 0.749
-4.377 -5.496 1.132
-6.448 -6.903 0.472
-5.029 -5.779 0.764
-5.029 -5.779 0.764
-6.772 -7.297 0.541
-4.760 -5.803 1.060
-5.376 -6.446 1.080
-4.757 -5.804 1.063
-5.164 -5.651 0.502
-5.418 -6.262 0.860
-5.479 -6.264 0.801
-5.792 -6.355 0.576
-4.757 -5.804 1.063
-5.739 -6.357 0.632
-5.388 -6.459 1.083
-5.029 -5.779 0.764
-6.606 -7.394 0.797
-6.397 -7.464 1.082
-5.388 -6.458 1.083
-5.164 -5.651 0.502
-6.397 -7.465 1.084
-4.791 -5.298 0.522
-5.374 -6.472 1.112
-4.824 -5.815 1.008
-5.388 -6.459 1.083
-5.785 -6.408 0.636
-4.854 -5.574 0.737
-5.029 -5.779 0.764
-5.388 -6.459 1.083
-5.029 -5.779 0.764
-5.479 -6.264 0.801
-5.029 -5.779 0.764
-5.376 -6.446 1.080
-4.986 -6.188 1.217
-9.321 -10.454 1.146
-4.121 -5.225 1.119
-5.029 -5.779 0.764
-4.854 -5.574 0.737
-5.388 -6.459 1.083
-4.299 -5.517 1.231
-5.713 -6.303 0.598
-5.099 -6.087 1.005
-5.418 -6.262 0.860
-4.728 -5.826 1.115
-5.786 -6.412 0.639
-9.084 -11.692 2.611
-5.835 -6.693 0.866
-4.520 -5.345 0.838
-4.436 -5.451 1.031
-5.143 -6.109 0.981
-4.991 -5.703 0.726
-5.479 -6.264 0.801
-4.570 -5.459 0.905
-4.403 -5.358 0.972
-5.376 -6.446 1.081
-5.786 -6.411 0.638
-5.388 -6.459 1.083
-5.479 -6.264 0.801
-5.215 -6.111 0.912
-5.786 -6.413 0.640
-4.703 -5.707 1.021
-5.417 -6.261 0.860
-6.772 -7.297 0.540
-5.784 -6.411 0.640
-5.375 -6.472 1.111
-5.388 -6.459 1.083
-5.418 -6.262 0.859
-5.388 -6.459 1.083
-5.418 -6.262 0.859
-5.561 -6.372 0.825
-5.792 -6.355 0.576
-5.388 -6.459 1.083
-5.388 -6.459 1.083
-5.786 -6.412 0.639
-4.758 -5.804 1.063
-5.836 -6.707 0.879
-4.520 -5.345 0.838
-5.388 -6.459 1.083
-6.638 -7.796 1.167
-5.418 -6.262 0.859
-4.928 -6.165 1.252
-5.418 -6.262 0.859
-4.378 -5.496 1.132
-4.854 -5.574 0.737
-5.786 -6.412 0.639
-5.111 -5.869 0.776
-5.387 -6.461 1.086
-9.656 -10.775 1.127
-5.500 -6.369 0.873
-5.417 -6.261 0.860
-4.475 -5.450 0.991
-8.819 -10.528 1.721
-4.988 -5.699 0.725
-4.739 -5.730 1.005
-6.700 -7.591 0.905
-5.388 -6.459 1.083
-4.757 -5.804 1.063
-5.647 -6.158 0.521
-4.403 -5.358 0.972
-4.520 -5.345 0.838
-4.757 -5.804 1.063
-5.786 -6.412 0.639
-5.376 -6.446 1.080
-5.080 -5.825 0.763
-6.560 -7.522 0.969
-5.418 -6.262 0.860
-4.854 -5.574 0.737
-4.854 -5.574 0.737
-5.029 -5.779 0.764
-5.270 -5.810 0.550
-5.388 -6.459 1.083
-5.831 -6.670 0.846
-5.029 -5.779 0.764
-4.990 -5.707 0.731
-6.124 -6.874 0.766
-4.981 -5.789 0.822
-4.757 -5.804 1.063
-5.029 -5.779 0.764
-4.228 -5.214 1.004
-4.824 -5.815 1.008
-4.155 -5.225 1.086
-5.479 -6.436 0.969
-4.824 -5.815 1.008
-4.991 -5.703 0.726
-4.991 -5.703 0.726
-5.418 -6.262 0.860
-4.760 -5.803 1.060
-5.479 -6.264 0.801
-5.376 -6.446 1.081
-4.703 -5.707 1.021
-4.854 -5.574 0.737
-4.933 -6.176 1.259
-4.232 -5.353 1.138
-6.315 -6.951 0.650
-5.388 -6.459 1.083
-5.312 -6.046 0.749
-6.125 -6.875 0.766
-4.738 -5.584 0.864
-5.051 -6.168 1.126
-5.835 -6.700 0.873
-4.704 -5.707 1.021
-5.388 -6.459 1.083
-6.398 -7.466 1.083
-4.942 -5.817 0.869
-4.762 -5.694 0.947
-4.722 -5.707 1.002
-4.436 -5.448 1.028
-5.314 -5.545 0.242
-8.789 -10.436 1.662
-5.647 -6.158 0.521
-5.008 -5.820 0.829
-4.757 -5.804 1.063
-4.730 -5.707 0.994
-5.792 -6.355 0.577
-9.292 -10.459 1.180
-4.757 -5.804 1.063
-4.757 -5.804 1.063
-4.521 -5.345 0.838
-4.521 -5.345 0.838
-4.861 -5.710 0.866
-4.942 -5.653 0.727
-4.584 -5.350 0.780
-4.833 -5.574 0.758
-4.992 -5.704 0.725
-4.992 -5.704 0.725
-4.168 -5.310 1.153
-5.647 -6.158 0.522
-4.942 -5.652 0.727
-5.418 -6.262 0.860
-5.388 -6.459 1.083
-4.990 -5.703 0.726
-5.388 -6.459 1.084
-4.156 -5.224 1.085
-4.730 -5.707 0.993
-5.388 -6.459 1.083
-4.791 -5.298 0.522
-6.176 -7.645 1.483
-6.638 -7.795 1.165
-4.980 -5.789 0.822
-4.238 -5.669 1.446
-5.786 -6.412 0.639
-4.730 -5.707 0.993
-5.388 -6.459 1.083
-4.755 -5.584 0.847
-5.029 -5.779 0.764
-6.797 -7.302 0.521
-4.730 -5.707 0.993
-4.824 -5.815 1.008
-5.164 -5.651 0.502
-4.672 -5.817 1.162
-4.824 -5.815 1.008
-4.762 -5.696 0.949
-5.786 -6.412 0.639
-6.772 -7.301 0.544
-4.760 -5.697 0.952
-4.854 -5.574 0.737
-4.504 -5.370 0.882
-4.730 -5.707 0.994
-5.164 -5.651 0.502
-4.992 -5.702 0.724
-4.727 -5.826 1.116
-4.757 -5.804 1.063
-5.388 -6.459 1.083
-4.704 -5.707 1.021
-5.792 -6.355 0.576
-4.727 -5.826 1.116
-5.479 -6.265 0.801
-4.763 -5.695 0.947
-5.313 -6.045 0.749
-4.854 -5.574 0.737
-5.418 -6.262 0.860
-4.991 -5.703 0.726
-5.080 -5.825 0.763
-4.854 -5.574 0.737
-5.374 -6.472 1.112
-4.760 -5.689 0.944
-5.164 -5.651 0.502
-5.376 -6.446 1.080
-4.928 -6.165 1.252
-5.479 -6.264 0.801
-4.757 -5.804 1.063
-5.215 -6.111 0.912
-6.129 -6.735 0.624
-4.318 -5.230 0.926
-5.786 -6.412 0.639
-5.164 -5.651 0.502
-5.785 -6.406 0.633
-5.164 -5.651 0.502
-4.744 -5.792 1.062
-5.080 -5.834 0.771
-4.570 -5.459 0.905
-4.428 -5.461 1.050
-5.313 -6.045 0.749
-5.376 -6.446 1.080
-4.428 -5.461 1.050
-4.854 -5.574 0.737
-6.797 -7.300 0.520
-5.164 -5.652 0.503
-5.163 -5.650 0.502
-4.764 -5.696 0.947
-5.786 -6.412 0.639
-5.786 -6.412 0.639
-4.988 -5.702 0.728
-4.762 -5.697 0.950
-5.388 -6.459 1.083
-5.374 -6.474 1.113
-5.786 -6.412 0.639
-4.153 -5.291 1.155
-4.152 -5.223 1.087
-4.833 -5.574 0.758
-4.854 -5.574 0.737
-4.763 -5.696 0.949
-4.232 -5.352 1.137
-6.606 -7.609 1.020
-4.418 -5.358 0.956
-4.763 -5.697 0.949
-4.744 -5.792 1.062
-5.388 -6.459 1.083
-4.727 -5.826 1.116
-5.029 -5.779 0.764
-6.772 -7.299 0.542
-5.164 -5.651 0.502
-5.388 -6.459 1.083
-5.142 -6.109 0.982
-4.475 -5.449 0.991
-4.704 -5.707 1.021
-5.374 -6.473 1.112
-4.704 -5.707 1.021
-4.722 -5.707 1.002
-6.397 -7.466 1.084
-5.786 -6.412 0.639
-4.928 -6.165 1.252
-4.722 -5.707 1.002
-5.215 -6.111 0.912
-5.080 -5.826 0.763
-4.704 -5.707 1.021
-4.722 -5.707 1.002
-4.232 -5.352 1.137
-4.991 -5.703 0.726
-4.704 -5.707 1.021
-5.786 -6.412 0.639
-7.318 -8.463 1.154
-5.786 -6.412 0.639
-5.080 -5.825 0.762
-5.732 -6.279 0.558
-5.080 -5.823 0.760
-5.647 -6.158 0.521
-4.703 -5.707 1.021
-5.786 -6.412 0.639
-5.163 -5.651 0.502
-4.428 -5.461 1.050
-4.014 -5.529 1.527
-5.388 -6.459 1.083
-4.759 -5.584 0.843
-4.928 -6.165 1.252
-5.785 -6.409 0.636
-4.728 -5.826 1.115
-5.792 -6.355 0.576
-4.475 -5.449 0.990
-4.703 -5.707 1.021
-5.388 -6.459 1.083
-5.211 -6.110 0.908
-4.231 -5.352 1.138
-5.774 -6.392 0.627
-6.622 -7.608 1.003
-4.722 -5.707 1.002
-4.703 -5.707 1.021
-6.235 -6.947 0.726
-5.959 -7.271 1.327
-4.437 -5.456 1.036
-5.784 -6.880 1.114
-4.446 -5.452 1.022
-6.772 -7.294 0.537
-4.731 -5.707 0.993
-4.403 -5.358 0.972
-5.080 -5.824 0.761
-4.418 -5.358 0.957