-8.721 -9.534 0.815
-6.062 -6.872 0.824
-6.062 -6.872 0.824
-6.396 -6.664 0.282
-10.986 -10.079 -0.896
-6.025 -6.787 0.777
-8.875 -9.388 0.515
-10.986 -10.080 -0.896
-6.025 -6.787 0.777
-10.986 -10.079 -0.896
-6.392 -6.664 0.286
-11.228 -10.074 -1.144
-6.426 -6.661 0.251
-6.392 -6.664 0.287
-5.772 -5.949 0.191
-9.256 -9.354 0.109
-10.984 -10.082 -0.891
-6.041 -6.864 0.837
-6.025 -6.787 0.777
-8.946 -9.243 0.309
-9.727 -9.978 0.265
-10.156 -9.954 -0.190
-10.990 -10.084 -0.895
-5.772 -5.949 0.191
-6.041 -6.864 0.837
-6.392 -6.664 0.287
-5.909 -6.780 0.886
-10.156 -9.954 -0.190
-5.738 -6.125 0.402
-5.738 -6.125 0.402
-10.102 -9.947 -0.143
-11.228 -10.074 -1.144
-10.132 -10.099 -0.020
-10.132 -10.099 -0.020
-10.963 -10.101 -0.851
-10.089 -9.946 -0.131
-10.089 -9.946 -0.131
-10.156 -9.954 -0.190
-10.963 -10.100 -0.852
-8.258 -9.087 0.843
-8.039 -8.449 0.425
-6.392 -6.664 0.287
-8.265 -9.088 0.838
-10.101 -9.947 -0.142
-6.392 -6.664 0.287
-10.990 -10.084 -0.895
-9.306 -9.883 0.592
-10.104 -9.955 -0.137
-10.975 -10.090 -0.874
-10.163 -9.958 -0.193
-10.172 -9.960 -0.201
-11.218 -10.082 -1.126
-6.333 -6.816 0.497
-6.392 -6.664 0.287
-6.392 -6.664 0.287
-10.956 -10.108 -0.837
-6.392 -6.664 0.287
-10.981 -10.092 -0.878
-6.423 -6.819 0.411
-10.397 -9.665 -0.725
-6.423 -6.819 0.411
-6.392 -6.664 0.286
-5.773 -5.949 0.191
-6.392 -6.664 0.286
-6.392 -6.664 0.286
-6.392 -6.664 0.286
-6.392 -6.664 0.286
-6.392 -6.664 0.286
-6.392 -6.664 0.286
-10.168 -9.956 -0.200
-5.773 -5.949 0.191
-10.960 -10.106 -0.844
-8.036 -8.446 0.425
-6.392 -6.664 0.287
-5.773 -5.949 0.191
-9.633 -10.017 0.397
-10.985 -10.090 -0.883
-6.392 -6.664 0.287
-9.640 -10.016 0.389
-6.392 -6.664 0.287
-10.985 -10.090 -0.883
-6.352 -6.658 0.320
-6.352 -6.658 0.320
-6.352 -6.658 0.320
-6.352 -6.658 0.320
-10.112 -9.951 -0.149
-6.392 -6.664 0.287
-6.423 -6.819 0.411
-5.773 -5.949 0.191
-10.960 -10.106 -0.843
-6.392 -6.664 0.287
-6.352 -6.658 0.320
-10.979 -10.089 -0.879
-6.392 -6.664 0.287
-11.222 -10.081 -1.130
-6.392 -6.664 0.287
-10.099 -9.951 -0.137
-6.392 -6.664 0.287
-6.392 -6.664 0.287
-6.392 -6.664 0.287
-6.392 -6.664 0.287
-5.773 -5.949 0.191
-6.423 -6.819 0.411
-9.650 -10.016 0.379
-10.960 -10.106 -0.842
-6.392 -6.664 0.287
-6.392 -6.664 0.287
-9.266 -9.354 0.099
-6.352 -6.658 0.320
-10.176 -9.958 -0.207
-6.423 -6.819 0.411
-7.689 -8.389 0.715
-6.352 -6.658 0.320
-5.760 -6.500 0.754
-9.637 -10.016 0.392
-9.637 -10.016 0.392
-5.773 -5.949 0.191
-8.249 -9.060 0.825
-6.352 -6.658 0.320
-7.673 -8.385 0.726
-6.009 -5.994 -0.001
-8.036 -8.447 0.426
-5.216 -5.604 0.382
-10.979 -10.089 -0.879
-9.266 -9.354 0.099
-6.392 -6.664 0.287
-5.760 -6.500 0.754
-7.690 -8.388 0.713
-6.422 -6.819 0.411
-10.131 -10.104 -0.015
-9.650 -10.016 0.380
-6.392 -6.664 0.287
-6.392 -6.664 0.287
-6.392 -6.664 0.287
-6.352 -6.658 0.320
-10.979 -10.089 -0.879
-6.009 -5.994 -0.001
-6.423 -6.819 0.411
-11.222 -10.081 -1.130
-6.020 -6.792 0.787
-8.247 -9.061 0.828
-6.392 -6.664 0.287
-6.423 -6.819 0.411
-5.962 -6.072 0.125
-6.392 -6.664 0.287
-6.392 -6.664 0.287
-6.392 -6.664 0.287
-6.392 -6.664 0.287
-5.760 -6.500 0.754
-6.020 -6.792 0.787
-6.352 -6.658 0.320
-6.352 -6.658 0.320
-6.352 -6.658 0.320
-6.392 -6.664 0.287
-6.352 -6.658 0.320
-6.423 -6.819 0.411
-9.650 -10.016 0.379
-6.423 -6.819 0.411
-5.760 -6.500 0.754
-6.423 -6.819 0.411
-10.979 -10.089 -0.879
-9.639 -10.016 0.391
-6.352 -6.658 0.320
-6.020 -6.792 0.787
-5.730 -5.930 0.215
-5.730 -5.930 0.215
-6.392 -6.664 0.287
-7.690 -8.388 0.713
-9.639 -10.016 0.391
-5.738 -6.126 0.402
-6.352 -6.658 0.320
-6.352 -6.658 0.320
-7.690 -8.388 0.713
-5.985 -5.981 0.010
-6.392 -6.664 0.287
-8.634 -9.288 0.668
-9.639 -10.016 0.391
-5.730 -5.930 0.215
-5.773 -5.949 0.191
-5.738 -6.126 0.403
-6.423 -6.819 0.411
-5.760 -6.500 0.754
-5.985 -5.981 0.010
-10.135 -10.105 -0.017
-10.979 -10.089 -0.879
-7.690 -8.388 0.713
-6.392 -6.664 0.287
-6.352 -6.658 0.320
-6.352 -6.658 0.320
-6.009 -5.994 -0.001
-8.634 -9.287 0.667
-7.690 -8.388 0.713
-6.389 -6.664 0.290
-6.389 -6.664 0.290
-5.727 -5.931 0.219
-7.674 -8.386 0.726
-7.674 -8.385 0.725
-6.389 -6.664 0.290
-6.389 -6.664 0.290
-6.389 -6.664 0.290
-9.639 -10.016 0.391
-6.389 -6.664 0.290
-6.389 -6.664 0.290
-6.389 -6.664 0.290
-9.639 -10.016 0.390
-8.947 -9.336 0.400
-8.634 -9.287 0.667
-8.862 -9.385 0.525
-7.674 -8.386 0.726
-8.634 -9.287 0.667
-5.960 -6.001 0.056
-8.658 -9.084 0.440
-8.386 -9.023 0.650
-7.674 -8.385 0.726
-6.389 -6.664 0.290
-6.389 -6.664 0.290
-8.386 -9.023 0.649
-9.637 -10.017 0.393
-6.003 -5.993 0.005
-5.769 -5.951 0.196
-7.674 -8.385 0.726
-7.674 -8.385 0.726
-5.727 -5.931 0.219
-6.349 -6.658 0.323
-8.948 -9.924 0.990
-8.386 -9.023 0.650
-5.980 -5.982 0.016
-8.634 -9.286 0.665
-5.960 -6.089 0.144
-8.385 -9.021 0.649
-8.527 -9.080 0.564
-10.131 -10.103 -0.016
-7.690 -8.388 0.712
-6.389 -6.664 0.290
-5.963 -6.143 0.194
-7.673 -8.385 0.727
-8.946 -9.336 0.402
-8.946 -9.336 0.402
-8.946 -9.336 0.402
-6.332 -6.816 0.498
-7.673 -8.385 0.727
-6.004 -5.996 0.007
-9.637 -10.017 0.393
-6.389 -6.664 0.290
-6.389 -6.664 0.290
-7.674 -8.388 0.729
-6.349 -6.658 0.323
-7.673 -8.385 0.726
-9.740 -9.579 -0.148
-7.617 -8.384 0.782
-6.011 -5.993 -0.004
-6.356 -6.657 0.316
-5.966 -6.143 0.191
-6.393 -6.664 0.286
-5.480 -6.120 0.654
-11.228 -10.074 -1.144
-6.421 -6.819 0.413
-6.349 -6.658 0.324
-7.607 -8.417 0.823
-6.348 -6.659 0.325
-6.310 -6.658 0.362
-6.421 -6.819 0.413
-8.946 -9.339 0.404
-7.684 -8.386 0.717
-7.666 -8.383 0.731
-7.667 -8.383 0.731
-7.666 -8.383 0.731
-5.961 -6.143 0.197
-7.666 -8.383 0.731
-5.961 -6.143 0.197
-7.667 -8.383 0.730
-5.768 -5.950 0.197
-9.624 -10.014 0.404
-5.736 -6.126 0.404
-5.726 -5.931 0.220
-7.667 -8.382 0.730
-6.332 -6.816 0.499
-5.961 -6.143 0.197
-6.001 -5.995 0.008
-8.375 -9.022 0.660
-5.726 -5.931 0.220
-5.484 -6.119 0.650
-6.389 -6.664 0.290
-5.726 -5.931 0.219
-6.389 -6.664 0.290
-5.226 -5.618 0.406
-5.958 -6.090 0.147
-5.973 -5.998 0.040
-6.389 -6.664 0.290
-9.624 -10.014 0.404
-6.349 -6.658 0.323
-5.484 -6.119 0.650
-5.682 -6.143 0.476
-7.648 -8.408 0.771
-7.684 -8.386 0.717
-6.421 -6.819 0.413
-6.349 -6.658 0.323
-5.659 -6.117 0.473
-5.659 -6.117 0.473
-6.310 -6.658 0.362
-7.662 -8.351 0.702
-6.421 -6.819 0.413
-11.228 -10.074 -1.144
-5.484 -6.119 0.650
-5.484 -6.119 0.650
-8.933 -9.336 0.414
-7.667 -8.379 0.727
-7.684 -8.386 0.717
-5.313 -5.595 0.296
-7.667 -8.385 0.732
-5.958 -6.090 0.147
-5.979 -5.983 0.018
-7.684 -8.386 0.717
-6.349 -6.658 0.324
-5.726 -5.931 0.220
-8.365 -9.042 0.691
-8.374 -9.020 0.659
-6.389 -6.664 0.289
-5.662 -6.128 0.480
-5.737 -6.126 0.404
-9.637 -10.013 0.389
-10.132 -10.099 -0.020
-7.684 -8.386 0.717
-9.624 -10.014 0.404
-6.389 -6.664 0.289
-5.313 -5.595 0.296
-6.310 -6.658 0.362
-6.310 -6.658 0.362
-8.886 -9.894 1.020
-6.310 -6.658 0.362
-9.624 -10.014 0.404
-8.840 -9.813 0.970
-5.484 -6.119 0.650
-5.979 -5.982 0.018
-10.132 -10.099 -0.021
-10.984 -10.082 -0.891
-8.813 -9.466 0.667
-5.484 -6.119 0.650
-6.349 -6.658 0.323
-8.354 -9.054 0.712
-5.333 -5.592 0.273
-5.769 -5.950 0.196
-5.769 -5.950 0.196
-5.659 -6.117 0.473
-5.662 -6.128 0.481
-6.349 -6.658 0.323
-5.662 -6.128 0.481
-6.349 -6.658 0.323
-8.373 -9.025 0.664
-5.961 -6.143 0.197
-8.373 -9.025 0.665
-6.421 -6.819 0.413
-7.666 -8.386 0.735
-7.667 -8.384 0.732
-5.978 -5.983 0.019
-5.941 -6.133 0.207
-5.662 -6.128 0.481
-6.002 -5.996 0.009
-8.935 -9.335 0.412
-8.935 -9.336 0.413
-7.666 -8.397 0.746
-8.373 -9.025 0.664
-5.961 -6.143 0.197
-6.349 -6.658 0.324
-6.349 -6.658 0.324
-6.389 -6.664 0.290
-5.662 -6.128 0.481
-6.349 -6.658 0.323
-7.666 -8.383 0.731
-6.323 -6.432 0.123
-5.682 -6.143 0.476
-6.389 -6.664 0.290
-7.667 -8.385 0.733
-6.349 -6.658 0.323
-7.667 -8.386 0.733
-5.184 -5.635 0.467
-8.470 -9.098 0.637
-5.760 -6.500 0.754
-7.666 -8.385 0.734
-11.228 -10.074 -1.144
-6.332 -6.816 0.499
-5.662 -6.128 0.481
-7.350 -7.989 0.654
-5.944 -5.984 0.054
-5.977 -5.983 0.020
-5.484 -6.119 0.650
-5.484 -6.119 0.650
-5.662 -6.129 0.481
-6.349 -6.658 0.324
-5.227 -5.616 0.404
-5.665 -6.126 0.476
-9.624 -10.014 0.403
-8.374 -9.028 0.667
-5.961 -6.143 0.197
-6.349 -6.658 0.323
-6.310 -6.658 0.362
-7.667 -8.383 0.730
-5.726 -5.931 0.219
-7.667 -8.383 0.730
-6.389 -6.664 0.290
-6.349 -6.658 0.323
-5.614 -5.967 0.367
-7.667 -8.384 0.731
-7.667 -8.384 0.731
-5.698 -5.938 0.255
-7.667 -8.383 0.730
-6.813 -7.190 0.389
-6.315 -6.658 0.357
-6.310 -6.658 0.362
-5.958 -6.088 0.145
-5.614 -5.967 0.367
-6.332 -6.816 0.498
-5.737 -6.126 0.404
-7.684 -8.386 0.717
-5.313 -5.595 0.296
-5.978 -5.983 0.019
-6.002 -5.996 0.009
-7.666 -8.372 0.721
-8.938 -9.925 1.001
-7.684 -8.386 0.717
-7.684 -8.386 0.717
-5.226 -5.618 0.406
-5.979 -5.982 0.018
-5.184 -5.635 0.467
-7.662 -8.358 0.710
-5.662 -6.128 0.481
-5.662 -6.128 0.481
-8.372 -9.034 0.675
-9.624 -10.014 0.404
-5.333 -5.895 0.577
-5.979 -5.982 0.018
-8.375 -9.020 0.658
-6.349 -6.658 0.323
-6.002 -5.996 0.009
-7.661 -8.406 0.760
-5.761 -6.500 0.753
-11.228 -10.074 -1.144
-7.684 -8.386 0.717
-7.667 -8.382 0.729
-6.310 -6.658 0.362
-5.484 -6.119 0.650
-5.726 -5.931 0.219
-5.356 -5.980 0.639
-5.491 -5.917 0.441
-6.349 -6.658 0.323
-8.127 -9.035 0.913
-5.953 -5.983 0.045
-7.683 -8.391 0.723
-5.615 -5.967 0.367
-9.624 -10.014 0.404
-5.484 -6.119 0.650
-5.979 -5.982 0.018
-5.484 -6.119 0.650
-5.662 -6.128 0.481
-7.666 -8.383 0.731
-7.684 -8.386 0.717
-5.509 -6.032 0.538
-7.667 -8.384 0.731
-5.958 -6.089 0.146
-8.349 -9.071 0.735
-7.647 -8.339 0.705
-8.937 -9.920 0.997
-7.667 -8.388 0.736
-7.666 -8.383 0.731
-7.666 -8.384 0.732
-6.349 -6.658 0.323
-7.666 -8.383 0.731
-10.984 -10.082 -0.891
-5.916 -6.067 0.165
-5.492 -6.027 0.550
-10.136 -10.100 -0.023
-5.484 -6.119 0.650
-8.625 -9.285 0.674
-5.945 -5.983 0.053
-7.667 -8.383 0.731
-5.184 -5.635 0.467
-9.626 -10.014 0.401
-6.389 -6.664 0.290
-6.349 -6.658 0.323
-10.136 -10.100 -0.023
-7.667 -8.383 0.731
-5.333 -5.895 0.577
-7.645 -8.336 0.704
-8.376 -9.022 0.659
-8.376 -9.023 0.660
-7.684 -8.386 0.717
-5.333 -5.895 0.577
-6.349 -6.658 0.323
-5.615 -5.967 0.367
-7.232 -7.821 0.594
-6.764 -7.159 0.398
-6.332 -6.816 0.498
-5.615 -5.967 0.367
-5.615 -5.967 0.367
-5.654 -6.117 0.477
-5.614 -5.967 0.368
-5.663 -6.130 0.482
-7.616 -8.383 0.782
-6.349 -6.659 0.325
-5.741 -6.126 0.399
-5.987 -5.979 0.006
-5.987 -5.979 0.006
-5.491 -6.028 0.551
-5.957 -5.982 0.039
-5.221 -5.618 0.411
-5.983 -5.981 0.013
-5.181 -5.635 0.469
-5.614 -5.967 0.367
-5.652 -6.117 0.479
-5.666 -6.129 0.478
-5.957 -5.982 0.039
-5.614 -5.967 0.367
-5.983 -5.981 0.013
-7.022 -7.539 0.529
-5.774 -6.170 0.411
-5.615 -5.967 0.367
-5.312 -5.595 0.297
-10.084 -10.134 0.061
-7.616 -8.382 0.781
-5.983 -5.981 0.013
-5.312 -5.595 0.297
-7.635 -8.387 0.766
-5.774 -6.170 0.411
-5.334 -5.895 0.576
-6.314 -6.658 0.358
-5.491 -6.028 0.551
-8.018 -9.063 1.059
-5.615 -5.967 0.367
-10.084 -10.134 0.061
-7.616 -8.384 0.783
-6.006 -5.995 0.003
-5.225 -5.616 0.406
-5.225 -5.616 0.406
-5.769 -5.949 0.195
-7.616 -8.379 0.778
-5.612 -5.967 0.370
-5.666 -6.129 0.478
-5.358 -5.980 0.637
-5.657 -6.117 0.474
-5.983 -5.981 0.012
-5.983 -5.981 0.012
-7.617 -8.382 0.780
-5.983 -5.981 0.013
-5.491 -6.028 0.551
-5.666 -6.129 0.478
-7.616 -8.383 0.781
-6.323 -6.817 0.509
-8.018 -9.046 1.042
-5.922 -6.066 0.159
-5.957 -5.982 0.039
-7.615 -8.365 0.765
-9.723 -9.583 -0.127
-5.615 -5.967 0.367
-5.666 -6.129 0.478
-7.635 -8.388 0.768
-5.181 -5.635 0.469
-10.084 -10.134 0.061
-5.500 -6.107 0.622
-10.084 -10.134 0.061
-5.695 -5.937 0.257
-6.353 -6.658 0.319
-7.617 -8.379 0.777
-5.614 -5.967 0.367
-5.652 -6.117 0.479
-5.652 -6.117 0.479
-5.983 -5.981 0.013
-5.666 -6.129 0.478
-5.372 -5.756 0.398
-5.691 -5.998 0.322
-5.224 -5.618 0.408
-10.084 -10.134 0.061
-6.319 -6.658 0.353
-5.774 -6.170 0.411
-5.615 -5.967 0.367
-7.617 -8.385 0.783
-5.615 -5.967 0.367
-5.615 -5.967 0.367
-5.311 -5.856 0.560
-5.774 -6.170 0.411
-10.084 -10.134 0.061
-5.773 -6.170 0.412
-5.225 -5.616 0.406
-5.666 -6.129 0.478
-7.602 -8.420 0.832
-8.519 -9.988 1.483
-6.353 -6.658 0.319
-5.225 -5.616 0.406
-5.726 -5.930 0.219
-7.617 -8.381 0.779
-5.983 -5.981 0.013
-5.614 -5.967 0.367
-7.608 -8.380 0.787
-5.684 -6.144 0.474
-5.334 -5.895 0.576
-5.363 -5.749 0.401
-5.396 -5.748 0.366
-5.332 -5.593 0.275
-7.101 -7.738 0.645
-5.491 -6.028 0.551
-5.224 -5.616 0.407
-7.612 -8.402 0.804
-5.684 -6.144 0.474
-9.724 -9.583 -0.128
-5.666 -6.129 0.477
-7.617 -8.383 0.781
-9.640 -9.815 0.189
-5.691 -5.998 0.322
-5.333 -5.593 0.274
-5.374 -5.756 0.396
-5.666 -6.129 0.477
-7.616 -8.378 0.776
-6.354 -6.658 0.318
-5.500 -6.107 0.622
-5.311 -5.856 0.560
-5.958 -5.982 0.038
-5.182 -5.635 0.469
-5.666 -6.129 0.477
-6.354 -6.658 0.318
-5.726 -5.929 0.218
-5.615 -5.967 0.366
-10.084 -10.134 0.061
-5.726 -5.929 0.218
-5.726 -5.929 0.218
-5.311 -5.856 0.560
-5.923 -6.067 0.158
-5.698 -5.937 0.254
-5.923 -6.067 0.158
-5.337 -5.895 0.573
-7.352 -8.097 0.726
-5.774 -6.170 0.411
-6.319 -6.658 0.353
-7.615 -8.399 0.798
-7.618 -8.383 0.780
-5.666 -6.129 0.477
-5.612 -5.967 0.369
-7.607 -8.417 0.824
-5.741 -6.126 0.400
-5.923 -6.067 0.158
-6.297 -6.463 0.180
-6.319 -6.658 0.353
-5.666 -6.129 0.477
-7.617 -8.383 0.781
-5.615 -5.967 0.367
-5.958 -5.982 0.038
-6.283 -6.376 0.107
-6.354 -6.658 0.319
-5.666 -6.129 0.477
-7.617 -8.389 0.787
-6.319 -6.658 0.353
-5.237 -5.789 0.566
-5.666 -6.129 0.477
-9.724 -9.583 -0.128
-5.666 -6.129 0.477
-6.319 -6.658 0.353
-6.359 -6.658 0.313
-5.312 -5.595 0.297
-5.335 -5.596 0.276
-5.237 -5.789 0.566
-9.724 -9.583 -0.128
-5.615 -5.967 0.367
-5.958 -5.982 0.038
-5.503 -5.922 0.433
-5.335 -5.596 0.276
-7.578 -8.316 0.752
-5.666 -6.130 0.479
-5.982 -5.981 0.013
-5.958 -5.982 0.038
-6.319 -6.658 0.353
-7.478 -8.340 0.874
-7.617 -8.383 0.781
-6.353 -6.658 0.320
-6.353 -6.658 0.320
-5.615 -5.967 0.367
-5.666 -6.129 0.478
-5.612 -5.967 0.369
-9.724 -9.583 -0.128
-5.335 -5.596 0.276
-6.969 -7.475 0.520
-5.984 -5.981 0.012
-5.666 -6.129 0.477
-7.614 -8.360 0.760
-5.666 -6.129 0.477
-5.773 -6.170 0.411
-7.617 -8.381 0.779
-7.120 -7.719 0.612
-5.666 -6.129 0.477
-8.704 -9.535 0.833
-5.666 -6.129 0.477
-6.319 -6.658 0.353
-5.984 -5.981 0.011
-5.666 -6.129 0.477
-5.958 -5.982 0.038
-5.984 -5.981 0.011
-5.923 -6.067 0.158
-6.319 -6.658 0.353
-7.607 -8.405 0.812
-5.958 -5.982 0.038
-5.666 -6.129 0.477
-5.923 -6.067 0.158
-8.018 -9.046 1.042
-6.319 -6.658 0.353
-5.225 -5.616 0.406
-9.724 -9.583 -0.128
-5.984 -5.981 0.011
-8.757 -9.280 0.533
-9.724 -9.583 -0.128
-7.604 -8.396 0.807
-5.984 -5.981 0.012
-5.923 -6.067 0.158
-7.618 -8.381 0.778
-5.666 -6.129 0.477
-5.984 -5.981 0.011
-5.984 -5.981 0.011
-5.993 -5.981 0.003
-10.065 -9.743 -0.314
-5.983 -5.981 0.012
-6.309 -6.564 0.262
-6.328 -6.817 0.504
-5.983 -5.981 0.012
-6.384 -6.657 0.287
-5.958 -5.982 0.038
-5.726 -5.929 0.218
-10.081 -10.132 0.063
-10.123 -10.135 0.023
-5.984 -5.981 0.012
-9.720 -9.582 -0.125
-7.595 -8.376 0.794
-5.992 -5.981 0.003
-5.431 -5.698 0.281
-5.497 -6.028 0.545
-5.406 -5.754 0.362
-7.016 -7.578 0.572
-6.353 -6.658 0.319
-5.406 -5.754 0.362
-5.992 -5.981 0.003
-5.617 -5.967 0.364
-5.992 -5.981 0.003
-6.353 -6.658 0.319
-10.081 -10.132 0.063
-5.992 -5.981 0.003
-6.359 -6.658 0.314
-5.992 -5.981 0.003
-7.616 -8.387 0.786
-6.300 -6.428 0.143
-5.720 -5.932 0.226
-7.616 -8.383 0.781
-5.615 -5.967 0.367
-5.615 -5.967 0.367
-5.615 -5.967 0.367
-5.652 -6.117 0.480
-5.652 -6.117 0.480
-5.652 -6.117 0.480
-5.774 -6.170 0.411
-5.615 -5.967 0.367
-5.652 -6.117 0.480
-5.652 -6.117 0.480
-5.774 -6.170 0.411
-5.615 -5.967 0.367
-5.615 -5.967 0.367
-5.652 -6.117 0.480
-5.615 -5.967 0.367
-5.615 -5.967 0.367
-5.615 -5.967 0.367
-5.615 -5.967 0.367
-5.652 -6.117 0.480
-5.357 -5.980 0.638
-5.615 -5.967 0.367
-5.774 -6.170 0.411
-5.357 -5.980 0.638
-5.615 -5.967 0.367
-5.774 -6.170 0.411
-5.652 -6.117 0.480
-5.499 -6.107 0.623
-5.615 -5.967 0.367
-5.684 -6.143 0.474
-5.357 -5.980 0.638
-5.684 -6.144 0.475
-5.615 -5.967 0.367
-5.431 -5.698 0.281
-5.431 -5.698 0.281
-5.499 -6.107 0.623
-5.774 -6.170 0.411
-5.774 -6.170 0.411
-5.652 -6.117 0.480
-4.924 -5.190 0.281
-5.166 -5.405 0.253
-5.774 -6.170 0.411
-5.431 -5.697 0.281
-5.657 -6.117 0.475
-4.924 -5.190 0.281
-5.684 -6.143 0.474
-5.311 -5.856 0.560
-5.499 -6.107 0.623
-5.489 -5.916 0.442
-5.491 -6.028 0.552
-5.499 -6.107 0.623
-5.491 -6.028 0.552
-5.311 -5.856 0.560
-5.311 -5.856 0.560
-5.615 -5.967 0.367
-5.615 -5.967 0.367
-5.311 -5.856 0.560
-5.311 -5.856 0.560
-5.337 -5.895 0.573
-5.311 -5.856 0.560
-5.311 -5.856 0.560
-5.684 -6.143 0.474
-5.311 -5.856 0.560
-5.499 -6.107 0.623
-5.499 -6.107 0.623
-5.614 -5.967 0.367
-5.491 -6.028 0.552
-5.684 -6.143 0.474
-5.614 -5.967 0.367
-5.684 -6.143 0.474
-5.774 -6.170 0.411
-5.774 -6.170 0.411
-5.615 -5.967 0.367
-5.684 -6.143 0.474
-5.684 -6.143 0.474
-5.489 -5.916 0.442
-5.499 -6.107 0.623
-5.311 -5.856 0.560
-5.166 -5.405 0.253
-5.691 -5.998 0.322
-5.690 -5.998 0.323
-5.431 -5.698 0.281
-5.431 -5.698 0.281
-5.615 -5.967 0.367
-5.311 -5.856 0.560
-5.652 -6.117 0.480
-5.615 -5.967 0.367
-5.615 -5.967 0.367
-5.431 -5.698 0.281
-5.506 -5.922 0.430
-5.505 -6.032 0.541
-5.774 -6.170 0.411
-5.774 -6.170 0.411
-5.615 -5.967 0.367
-5.166 -5.405 0.253
-5.615 -5.967 0.367
-5.615 -5.967 0.367
-5.774 -6.170 0.411
-5.160 -5.406 0.260
-5.318 -5.885 0.582
-5.614 -5.967 0.367
-5.311 -5.856 0.560
-5.166 -5.405 0.253
-5.160 -5.406 0.260
-5.652 -6.117 0.480
-5.615 -5.967 0.367
-5.431 -5.698 0.281
-5.166 -5.405 0.253
-5.166 -5.405 0.253
-9.712 -9.585 -0.114
-5.615 -5.967 0.367
-5.684 -6.144 0.474
-5.166 -5.405 0.253
-4.925 -5.189 0.280
-5.685 -6.143 0.474
-5.432 -5.697 0.280
-5.491 -6.028 0.552
-5.160 -5.406 0.260
-5.491 -6.028 0.552
-5.615 -5.967 0.367
-4.925 -5.189 0.280
-5.160 -5.406 0.260
-5.685 -6.143 0.474
-5.237 -5.789 0.566
-5.311 -5.856 0.560
-7.191 -7.910 0.721
-5.615 -5.967 0.367
-5.310 -5.856 0.560
-5.774 -6.170 0.411
-5.225 -5.616 0.406
-5.684 -6.144 0.474
-5.615 -5.967 0.367
-5.774 -6.170 0.411
-5.615 -5.967 0.367
-5.432 -5.697 0.280
-5.432 -5.697 0.280
-5.357 -5.980 0.638
-5.160 -5.406 0.260
-5.691 -5.998 0.322
-5.227 -5.788 0.575
-5.685 -6.143 0.473
-5.775 -6.170 0.410
-5.310 -5.856 0.560
-5.653 -6.117 0.478
-5.615 -5.967 0.366
-5.357 -5.980 0.638
-5.432 -5.697 0.280
-5.691 -5.998 0.322
-5.615 -5.967 0.367
-5.615 -5.967 0.367
-5.684 -6.144 0.474
-5.615 -5.967 0.367
-5.310 -5.856 0.560
-5.615 -5.967 0.367
-5.775 -6.170 0.410
-5.310 -5.856 0.560
-5.432 -5.697 0.280
-5.615 -5.967 0.367
-5.227 -5.788 0.575
-5.237 -5.789 0.566
-5.160 -5.406 0.260
-5.432 -5.697 0.280
-5.684 -6.144 0.474
-5.691 -5.998 0.322
-5.432 -5.697 0.280
-5.225 -5.616 0.406
-5.310 -5.856 0.560
-5.367 -5.760 0.407
-5.684 -6.144 0.474
-8.024 -9.059 1.050
-5.691 -5.998 0.322
-5.310 -5.856 0.560
-5.615 -5.967 0.366
-7.616 -8.383 0.782
-5.432 -5.697 0.280
-5.615 -5.967 0.367
-5.775 -6.170 0.410
-5.775 -6.170 0.410
-5.691 -5.998 0.322
-5.432 -5.697 0.280
-5.615 -5.967 0.367
-5.775 -6.170 0.410
-7.616 -8.383 0.782
-5.160 -5.406 0.260
-10.125 -10.145 0.030
-5.685 -6.143 0.474
-5.432 -5.697 0.280
-5.684 -6.144 0.474
-5.432 -5.697 0.280
-5.432 -5.697 0.280
-7.616 -8.383 0.782
-5.432 -5.697 0.280
-5.432 -5.697 0.280
-4.925 -5.189 0.280
-5.615 -5.967 0.367
-8.522 -9.995 1.488
-5.166 -5.405 0.253
-5.431 -5.698 0.281
-5.685 -6.143 0.474
-5.615 -5.967 0.367
-5.432 -5.697 0.280
-5.160 -5.406 0.260
-5.166 -5.405 0.253
-7.394 -7.946 0.565
-5.585 -6.595 1.025
-6.313 -6.660 0.361
-5.225 -5.616 0.406
-5.718 -5.933 0.229
-5.160 -5.406 0.260
-5.432 -5.697 0.280
-5.432 -5.697 0.280
-5.489 -5.916 0.442
-5.160 -5.406 0.260
-5.499 -6.107 0.622
-5.505 -6.032 0.542
-8.024 -9.070 1.061
-5.503 -5.922 0.433
-7.609 -8.383 0.789
-5.775 -6.170 0.410
-7.616 -8.383 0.782
-5.166 -5.405 0.253
-10.126 -10.136 0.021
-5.774 -6.170 0.410
-7.111 -7.759 0.655
-5.978 -5.984 0.020
-5.432 -5.697 0.280
-5.432 -5.697 0.280
-8.024 -9.059 1.049
-5.489 -5.916 0.442
-5.774 -6.170 0.410
-7.054 -7.610 0.569
-5.691 -5.998 0.322
-8.024 -9.061 1.052
-5.615 -5.967 0.366
-5.160 -5.406 0.260
-5.685 -6.143 0.474
-5.775 -6.170 0.410
-5.160 -5.406 0.260
-5.685 -6.143 0.474
-5.615 -5.967 0.367
-6.313 -6.660 0.361
-5.685 -6.143 0.474
-5.971 -5.984 0.028
-5.667 -6.129 0.477
-6.312 -6.660 0.362
-5.970 -5.985 0.030
-5.505 -6.032 0.541
-7.616 -8.383 0.781
-5.431 -5.698 0.281
-5.505 -6.032 0.542
-5.236 -5.789 0.566
-5.166 -5.405 0.253
-5.978 -5.985 0.021
-7.242 -7.957 0.707
-7.205 -7.500 0.310
-5.682 -6.144 0.477
-9.712 -9.585 -0.114
-5.499 -6.107 0.623
-5.166 -5.405 0.253
-5.432 -5.697 0.280
-10.084 -10.134 0.061
-5.755 -5.931 0.191
-5.685 -6.143 0.474
-5.774 -6.170 0.410
-5.432 -5.697 0.280
-5.691 -5.998 0.322
-5.432 -5.697 0.280
-7.616 -8.375 0.774
-7.616 -8.383 0.782
-5.432 -5.697 0.280
-7.414 -8.050 0.645
-5.686 -6.143 0.472
-8.021 -9.046 1.040
-5.691 -5.998 0.322
-5.167 -5.405 0.252
-5.685 -6.143 0.473
-7.616 -8.383 0.781
-5.615 -5.967 0.366
-7.616 -8.387 0.785
-5.691 -5.998 0.322
-5.615 -5.967 0.367
-8.025 -9.059 1.048
-5.755 -5.930 0.190
-9.724 -9.586 -0.125
-8.024 -9.058 1.049
-6.976 -7.507 0.537
-5.653 -6.117 0.479
-5.505 -6.032 0.542
-6.301 -6.552 0.265
-9.712 -9.585 -0.114
-5.664 -6.127 0.477
-6.347 -6.660 0.327
-5.432 -5.697 0.280
-5.691 -5.998 0.322
-7.615 -8.369 0.769
-5.237 -5.789 0.566
-10.126 -10.136 0.021
-5.432 -5.697 0.280
-9.724 -9.583 -0.127
-5.775 -6.170 0.410
-5.685 -6.143 0.474
-8.024 -9.059 1.049
-5.499 -6.107 0.623
-5.160 -5.406 0.260
-8.522 -9.996 1.488
-5.432 -5.697 0.280
-6.313 -6.660 0.361
-5.945 -5.985 0.054
-7.616 -8.382 0.781
-5.166 -5.405 0.253
-7.616 -8.384 0.782
-9.712 -9.585 -0.114
-5.225 -5.616 0.406
-9.724 -9.583 -0.127
-6.313 -6.660 0.361
-5.665 -6.127 0.477
-4.925 -5.189 0.280
-5.505 -6.032 0.542
-5.505 -6.032 0.542
-5.685 -6.143 0.474
-5.224 -5.618 0.408
-5.685 -6.143 0.473
-5.775 -6.170 0.410
-5.432 -5.697 0.280
-5.775 -6.170 0.410
-5.432 -5.697 0.280
-4.925 -5.189 0.280
-8.024 -9.059 1.050
-5.432 -5.697 0.280
-5.331 -5.598 0.281
-5.331 -5.598 0.281
-7.616 -8.385 0.783
-7.238 -7.876 0.651
-9.723 -9.583 -0.126
-5.691 -5.998 0.322
-5.691 -5.998 0.322
-6.290 -6.436 0.161
-9.723 -9.583 -0.126
-9.712 -9.585 -0.114
-5.166 -5.405 0.253
-5.505 -6.032 0.542
-5.432 -5.697 0.280
-5.331 -5.598 0.281
-5.310 -5.856 0.560
-5.774 -6.170 0.411
-5.505 -6.032 0.542
-6.816 -7.267 0.465
-7.616 -8.386 0.784
-5.432 -5.697 0.280
-6.630 -7.044 0.425
-5.615 -5.967 0.366
-5.979 -5.985 0.020
-5.979 -5.985 0.020
-8.023 -9.051 1.042
-8.022 -9.044 1.036
-5.331 -5.598 0.281
-10.117 -10.135 0.030
-5.774 -6.170 0.411
-7.205 -7.500 0.310
-5.971 -5.985 0.028
-10.082 -10.134 0.062
-5.166 -5.405 0.253
-5.667 -6.129 0.477
-5.653 -6.117 0.479
-5.432 -5.697 0.280
-5.685 -6.143 0.474
-5.505 -6.032 0.542
-5.615 -5.967 0.366
-5.615 -5.967 0.366
-5.400 -5.757 0.371
-5.166 -5.405 0.253
-5.775 -6.170 0.410
-5.160 -5.406 0.260
-5.691 -5.998 0.322
-5.691 -5.998 0.322
-5.685 -6.143 0.474
-5.775 -6.170 0.410
-7.616 -8.384 0.783
-5.775 -6.170 0.410
-5.691 -5.998 0.322
-5.507 -5.921 0.430
-5.432 -5.697 0.280
-5.507 -5.921 0.430
-5.615 -5.967 0.366
-5.971 -5.984 0.028
-5.980 -5.985 0.019
-5.353 -5.596 0.258
-5.774 -6.170 0.410
-4.925 -5.189 0.280
-5.971 -5.984 0.028
-5.971 -5.984 0.028
-5.691 -5.998 0.322
-9.712 -9.585 -0.114
-8.021 -9.063 1.056
-4.925 -5.189 0.280
-5.166 -5.405 0.253
-5.432 -5.697 0.280
-5.691 -5.998 0.322
-5.945 -5.985 0.054
-5.615 -5.967 0.366
-10.126 -10.136 0.021
-5.166 -5.405 0.253
-7.205 -7.500 0.310
-5.979 -5.985 0.020
-5.166 -5.405 0.253
-5.357 -5.980 0.638
-5.979 -5.985 0.020
-9.724 -9.583 -0.127
-5.367 -5.760 0.407
-5.166 -5.405 0.253
-5.166 -5.405 0.253
-5.980 -5.985 0.019
-5.685 -6.143 0.473
-9.712 -9.585 -0.114
-5.489 -5.916 0.442
-7.616 -8.383 0.781
-5.166 -5.405 0.253
-6.313 -6.660 0.361
-5.691 -5.998 0.322
-5.775 -6.170 0.410
-5.432 -5.697 0.280
-5.432 -5.697 0.280
-5.685 -6.143 0.474
-5.432 -5.697 0.280
-5.432 -5.697 0.280
-5.585 -6.595 1.024
-5.400 -5.757 0.371
-5.357 -5.980 0.638
-5.691 -5.998 0.322
-5.691 -5.998 0.322
-5.911 -6.074 0.178
-5.400 -5.757 0.371
-5.432 -5.697 0.280
-10.126 -10.136 0.021
-5.585 -6.595 1.025
-5.980 -5.985 0.020
-5.691 -5.998 0.322
-5.691 -5.998 0.322
-5.585 -6.595 1.024
-5.160 -5.406 0.260
-5.684 -6.144 0.474
-7.205 -7.500 0.310
-5.774 -6.170 0.411
-7.164 -7.796 0.645
-7.581 -8.959 1.370
-10.083 -10.134 0.061
-5.782 -5.950 0.182
-5.432 -5.697 0.281
-5.188 -5.641 0.467
-5.980 -5.985 0.020
-5.432 -5.697 0.280
-5.585 -6.595 1.025
-10.126 -10.136 0.021
-5.718 -5.933 0.230
-7.205 -7.500 0.310
-10.126 -10.136 0.021
-5.432 -5.697 0.281
-5.432 -5.697 0.281
-5.357 -5.980 0.638
-5.331 -5.598 0.281
-5.774 -6.170 0.411
-5.432 -5.697 0.281
-5.664 -6.127 0.478
-6.376 -6.659 0.297
-5.684 -6.144 0.474
-5.160 -5.406 0.260
-10.084 -10.134 0.061
-9.712 -9.585 -0.114
-7.120 -7.776 0.659
-5.224 -5.618 0.408
-9.724 -9.583 -0.127
-5.665 -6.128 0.478
-5.684 -6.143 0.474
-5.166 -5.405 0.253
-5.225 -5.616 0.406
-5.665 -6.127 0.477
-5.615 -5.967 0.366
-5.431 -5.697 0.281
-5.665 -6.127 0.478
-5.945 -5.985 0.054
-5.432 -5.697 0.280
-9.724 -9.583 -0.127
-6.319 -6.817 0.513
-5.691 -5.998 0.322
-5.691 -5.998 0.322
-5.615 -5.967 0.366
-5.971 -5.984 0.028
-5.665 -6.127 0.477
-5.665 -6.127 0.477
-5.432 -5.697 0.280
-10.083 -10.134 0.061
-5.430 -5.698 0.282
-6.449 -6.790 0.344
-10.126 -10.136 0.021
-10.084 -10.134 0.061
-5.684 -6.144 0.474
-7.616 -8.381 0.780
-5.615 -5.967 0.367
-7.205 -7.500 0.310
-5.476 -6.120 0.658
-10.083 -10.134 0.061
-7.205 -7.500 0.310
-5.684 -6.143 0.474
-5.615 -5.967 0.367
-5.331 -5.598 0.281
-10.084 -10.134 0.061
-4.672 -4.997 0.340
-4.158 -4.733 0.589
-4.672 -4.997 0.340
-4.672 -4.997 0.340
-4.192 -4.465 0.287
-4.064 -4.386 0.336
-4.672 -4.997 0.340
-4.672 -4.997 0.340
-4.158 -4.733 0.589
-4.158 -4.733 0.589
-4.158 -4.733 0.589
-4.158 -4.733 0.589
-4.672 -4.997 0.340
-7.402 -8.081 0.684
-4.794 -5.472 0.692
-4.077 -4.598 0.536
-4.554 -4.980 0.441
-4.597 -5.190 0.608
-4.597 -5.190 0.608
-4.073 -4.399 0.341
-4.077 -4.597 0.534
-4.583 -4.984 0.415
-4.671 -4.997 0.340
-4.077 -4.598 0.534
-4.158 -4.733 0.589
-4.637 -5.264 0.641
-4.672 -4.997 0.340
-4.672 -4.997 0.340
-4.077 -4.597 0.534
-4.064 -4.386 0.336
-4.158 -4.733 0.589
-4.678 -4.994 0.330
-4.671 -4.996 0.339
-4.672 -4.997 0.340
-4.672 -4.997 0.340
-4.583 -4.984 0.415
-4.158 -4.733 0.589
-4.158 -4.733 0.589
-5.042 -5.438 0.410
-4.015 -4.660 0.660
-4.015 -4.660 0.660
-4.765 -5.377 0.627
-7.611 -8.361 0.765
-8.014 -9.040 1.041
-4.340 -4.852 0.527
-7.605 -8.376 0.783
-4.583 -4.984 0.415
-4.285 -4.596 0.326
-5.335 -5.697 0.377
-4.672 -4.997 0.341
-4.672 -4.997 0.341
-4.672 -4.997 0.341
-4.158 -4.733 0.589
-4.158 -4.733 0.589
-4.765 -5.377 0.627
-4.078 -4.597 0.534
-5.042 -5.438 0.410
-4.583 -4.984 0.415
-4.678 -4.994 0.330
-4.672 -4.997 0.340
-4.077 -4.597 0.534
-4.077 -4.597 0.534
-4.765 -5.377 0.627
-4.192 -4.465 0.287
-4.340 -4.852 0.527
-4.583 -4.984 0.415
-4.078 -4.597 0.534
-4.555 -4.981 0.441
-4.583 -4.984 0.415
-4.678 -4.994 0.330
-4.637 -5.264 0.641
-4.583 -4.984 0.415
-4.671 -4.997 0.341
-4.192 -4.465 0.287
-4.299 -4.964 0.679
-5.617 -5.967 0.364
-4.678 -4.994 0.330
-5.979 -5.985 0.020
-4.340 -4.852 0.527
-4.073 -4.399 0.341
-4.073 -4.399 0.341
-5.042 -5.438 0.410
-4.241 -4.611 0.385
-4.671 -4.996 0.340
-4.299 -4.964 0.679
-5.979 -5.985 0.020
-4.106 -4.396 0.304
-4.340 -4.852 0.527
-4.297 -4.815 0.533
-4.671 -4.997 0.341
-4.671 -4.997 0.341
-4.555 -4.981 0.441
-4.765 -5.377 0.627
-4.765 -5.377 0.627
-5.042 -5.438 0.410
-4.340 -4.852 0.527
-4.285 -4.596 0.326
-4.597 -5.190 0.608
-4.299 -4.964 0.679
-4.015 -4.660 0.660
-4.583 -4.984 0.415
-4.597 -5.190 0.608
-4.583 -4.984 0.415
-4.671 -4.997 0.341
-4.239 -4.473 0.249
-4.583 -4.984 0.415
-4.671 -4.997 0.341
-4.597 -5.190 0.608
-4.765 -5.377 0.627
-4.158 -4.733 0.589
-4.583 -4.984 0.415
-4.703 -5.374 0.685
-4.321 -4.592 0.286
-4.078 -4.597 0.534
-4.637 -5.264 0.641
-4.583 -4.984 0.415
-4.583 -4.984 0.415
-4.583 -4.984 0.415
-5.042 -5.438 0.410
-4.015 -4.660 0.660
-4.192 -4.465 0.287
-4.672 -4.997 0.340
-4.765 -5.377 0.627
-4.765 -5.377 0.627
-4.078 -4.597 0.534
-4.234 -4.824 0.604
-4.192 -4.465 0.287
-4.583 -4.984 0.415
-4.238 -4.473 0.250
-4.555 -4.981 0.441
-5.042 -5.438 0.410
-4.765 -5.377 0.627
-4.073 -4.399 0.341
-4.765 -5.377 0.627
-4.518 -4.976 0.473
-4.672 -4.997 0.340
-4.583 -4.984 0.415
-5.979 -5.985 0.020
-4.297 -4.815 0.533
-4.597 -5.190 0.608
-4.340 -4.852 0.527
-4.299 -4.964 0.679
-5.042 -5.438 0.410
-4.340 -4.852 0.527
-4.583 -4.984 0.415
-4.583 -4.984 0.415
-4.583 -4.984 0.415
-4.583 -4.984 0.415
-4.583 -4.984 0.415
-4.583 -4.984 0.415
-4.238 -4.473 0.250
-4.297 -4.815 0.533
-4.518 -4.976 0.473
-4.671 -4.997 0.341
-4.078 -4.598 0.534
-4.678 -4.994 0.330
-4.678 -4.994 0.330
-5.667 -6.130 0.477
-4.583 -4.984 0.415
-4.240 -4.611 0.386
-5.979 -5.985 0.020
-4.238 -4.473 0.250
-4.340 -4.852 0.527
-4.340 -4.852 0.527
-5.101 -5.438 0.352
-4.241 -4.611 0.385
-4.239 -4.473 0.249
-4.637 -5.264 0.641
-4.519 -4.976 0.472
-4.678 -4.994 0.330
-4.597 -5.190 0.608
-5.979 -5.985 0.020
-5.042 -5.438 0.410
-4.330 -4.601 0.286
-4.192 -4.465 0.287
-4.153 -4.727 0.589
-4.583 -4.984 0.415
-4.765 -5.377 0.627
-4.597 -5.190 0.608
-5.335 -5.697 0.377
-4.277 -4.844 0.582
-4.583 -4.984 0.415
-4.073 -4.399 0.341
-5.042 -5.438 0.410
-4.335 -4.601 0.281
-4.671 -4.998 0.341
-4.152 -4.727 0.589
-6.352 -6.660 0.322
-5.042 -5.438 0.410
-5.335 -5.697 0.377
-4.765 -5.377 0.627
-4.704 -5.374 0.685
-4.137 -4.730 0.607
-4.137 -4.730 0.607
-4.297 -4.815 0.533
-3.922 -4.352 0.445
-5.617 -5.967 0.364
-4.518 -4.976 0.473
-4.073 -4.399 0.341
-4.678 -4.994 0.330
-4.583 -4.984 0.415
-4.297 -4.815 0.533
-4.583 -4.984 0.415
-4.152 -4.727 0.589
-4.678 -4.994 0.330
-4.765 -5.377 0.627
-4.340 -4.852 0.527
-4.518 -4.977 0.473
-4.299 -4.964 0.679
-4.340 -4.852 0.527
-4.238 -4.473 0.250
-4.078 -4.598 0.534
-7.617 -8.383 0.781
-4.158 -4.733 0.589
-4.340 -4.852 0.527
-4.340 -4.852 0.527
-5.979 -5.985 0.020
-4.137 -4.730 0.607
-5.979 -5.985 0.020
-4.299 -4.964 0.679
-4.704 -5.374 0.685
-4.253 -4.610 0.372
-4.672 -4.997 0.340
-4.239 -4.473 0.249
-4.138 -4.730 0.607
-4.583 -4.984 0.415
-8.015 -9.709 1.708
-4.158 -4.733 0.589
-6.352 -6.660 0.322
-4.555 -4.981 0.441
-5.042 -5.438 0.410
-4.583 -4.984 0.415
-4.250 -4.611 0.376
-4.068 -4.398 0.344
-4.672 -4.997 0.340