-5.584 -5.152 -0.429
-5.549 -5.210 -0.337
-5.539 -5.206 -0.331
-5.539 -5.206 -0.331
-5.584 -5.152 -0.429
-5.580 -5.153 -0.424
-5.539 -5.206 -0.331
-5.580 -5.153 -0.424
-5.584 -5.152 -0.429
-5.450 -5.138 -0.308
-5.580 -5.153 -0.424
-5.580 -5.153 -0.424
-5.580 -5.153 -0.424
-5.580 -5.153 -0.424
-5.549 -5.210 -0.337
-5.580 -5.153 -0.424
-5.549 -5.210 -0.337
-5.539 -5.206 -0.331
-5.584 -5.152 -0.429
-5.549 -5.210 -0.337
-5.549 -5.210 -0.337
-4.843 -5.058 0.218
-5.584 -5.152 -0.429
-5.539 -5.206 -0.331
-4.843 -5.058 0.218
-4.843 -5.058 0.218
-5.580 -5.153 -0.424
-4.843 -5.058 0.218
-5.549 -5.210 -0.337
-5.584 -5.152 -0.429
-5.580 -5.153 -0.424
-4.839 -5.059 0.223
-4.839 -5.059 0.223
-5.449 -5.138 -0.307
-5.538 -5.206 -0.331
-5.538 -5.206 -0.331
-4.841 -5.058 0.220
-5.579 -5.153 -0.424
-5.579 -5.153 -0.424
-5.579 -5.153 -0.424
-5.549 -5.210 -0.337
-5.538 -5.206 -0.331
-5.538 -5.206 -0.331
-5.584 -5.152 -0.429
-5.579 -5.153 -0.424
-5.579 -5.153 -0.424
-5.584 -5.152 -0.429
-5.579 -5.153 -0.424
-5.549 -5.210 -0.337
-5.549 -5.210 -0.337
-5.579 -5.153 -0.424
-5.584 -5.152 -0.429
-5.579 -5.153 -0.424
-5.538 -5.206 -0.331
-5.579 -5.153 -0.424
-5.008 -5.032 0.028
-5.584 -5.152 -0.429
-5.538 -5.206 -0.331
-5.579 -5.153 -0.424
-5.549 -5.210 -0.337
-5.538 -5.206 -0.331
-5.579 -5.153 -0.424
-5.549 -5.210 -0.337
-5.549 -5.210 -0.337
-5.538 -5.206 -0.331
-5.538 -5.206 -0.331
-5.579 -5.153 -0.424
-5.579 -5.153 -0.424
-5.549 -5.210 -0.337
-5.449 -5.138 -0.307
-5.549 -5.210 -0.337
-5.538 -5.206 -0.331
-5.549 -5.210 -0.337
-5.584 -5.152 -0.429
-5.579 -5.153 -0.424
-5.538 -5.206 -0.331
-5.549 -5.210 -0.337
-5.584 -5.152 -0.429
-5.579 -5.153 -0.424
-5.449 -5.138 -0.307
-5.538 -5.206 -0.331
-5.449 -5.138 -0.308
-5.549 -5.210 -0.337
-5.584 -5.152 -0.429
-5.371 -5.120 -0.248
-5.579 -5.153 -0.424
-5.579 -5.153 -0.424
-5.449 -5.138 -0.307
-5.449 -5.138 -0.307
-5.579 -5.153 -0.424
-5.585 -5.197 -0.385
-5.579 -5.153 -0.424
-5.549 -5.210 -0.337
-5.579 -5.153 -0.424
-5.538 -5.206 -0.331
-5.455 -5.155 -0.296
-5.579 -5.153 -0.424
-5.579 -5.153 -0.424
-5.549 -5.210 -0.337
-5.584 -5.152 -0.429
-5.538 -5.206 -0.331
-5.531 -5.182 -0.348
-4.841 -5.058 0.220
-5.449 -5.138 -0.308
-5.585 -5.197 -0.385
-5.549 -5.210 -0.337
-5.519 -5.170 -0.345
-5.549 -5.210 -0.337
-7.781 -7.806 0.025
-5.584 -5.152 -0.429
-7.703 -7.839 0.137
-4.841 -5.058 0.220
-5.579 -5.153 -0.424
-5.396 -5.137 -0.256
-5.549 -5.210 -0.337
-5.449 -5.138 -0.307
-5.022 -5.033 0.014
-5.584 -5.152 -0.429
-5.022 -5.033 0.014
-5.584 -5.152 -0.429
-5.584 -5.152 -0.429
-8.446 -7.555 -0.892
-5.421 -5.025 -0.392
-5.579 -5.153 -0.424
-5.538 -5.206 -0.331
-5.538 -5.206 -0.331
-5.538 -5.206 -0.331
-5.584 -5.152 -0.429
-5.549 -5.210 -0.337
-5.440 -5.089 -0.347
-5.417 -5.161 -0.252
-5.549 -5.210 -0.337
-5.579 -5.153 -0.424
-5.491 -5.189 -0.298
-5.584 -5.152 -0.429
-5.584 -5.152 -0.429
-5.549 -5.210 -0.337
-5.579 -5.153 -0.424
-5.314 -4.975 -0.335
-5.584 -5.152 -0.429
-5.022 -5.033 0.014
-5.587 -5.153 -0.431
-5.579 -5.153 -0.424
-8.159 -7.835 -0.323
-5.583 -5.152 -0.428
-8.444 -7.556 -0.889
-5.585 -5.197 -0.384
-5.417 -5.161 -0.252
-5.417 -5.161 -0.252
-8.159 -7.835 -0.323
-7.224 -7.465 0.244
-5.008 -5.033 0.028
-5.583 -5.152 -0.428
-5.313 -4.975 -0.334
-7.224 -7.465 0.244
-5.585 -5.197 -0.384
-5.548 -5.210 -0.336
-7.280 -7.709 0.432
-5.583 -5.152 -0.428
-5.583 -5.152 -0.428
-5.548 -5.210 -0.336
-5.583 -5.152 -0.428
-5.397 -5.204 -0.191
-5.583 -5.152 -0.428
-5.491 -5.189 -0.297
-5.548 -5.210 -0.336
-5.583 -5.152 -0.428
-5.021 -5.033 0.015
-5.490 -5.189 -0.297
-5.313 -4.975 -0.334
-5.548 -5.210 -0.336
-5.548 -5.210 -0.336
-7.680 -7.838 0.159
-5.546 -5.206 -0.338
-5.579 -5.153 -0.423
-5.548 -5.210 -0.336
-5.583 -5.152 -0.428
-5.583 -5.152 -0.428
-5.417 -5.161 -0.252
-5.518 -5.139 -0.376
-5.583 -5.152 -0.428
-5.583 -5.152 -0.428
-5.583 -5.152 -0.428
-5.538 -5.206 -0.330
-5.548 -5.210 -0.337
-5.548 -5.210 -0.337
-5.583 -5.152 -0.428
-5.387 -5.133 -0.250
-5.538 -5.206 -0.330
-5.548 -5.210 -0.337
-5.406 -5.116 -0.287
-5.491 -5.189 -0.297
-5.491 -5.189 -0.297
-5.548 -5.210 -0.337
-5.583 -5.152 -0.428
-5.587 -5.153 -0.431
-7.680 -7.838 0.159
-5.417 -5.161 -0.252
-7.150 -7.663 0.516
-5.449 -5.138 -0.307
-5.452 -5.156 -0.293
-5.449 -5.138 -0.307
-5.587 -5.153 -0.431
-5.491 -5.189 -0.297
-5.420 -5.130 -0.287
-5.454 -5.156 -0.296
-5.583 -5.152 -0.428
-7.680 -7.838 0.159
-5.579 -5.153 -0.423
-5.008 -5.033 0.028
-5.583 -5.152 -0.428
-5.021 -5.033 0.015
-5.583 -5.152 -0.428
-5.583 -5.152 -0.428
-5.420 -5.130 -0.287
-5.583 -5.152 -0.428
-5.538 -5.206 -0.330
-5.583 -5.152 -0.428
-5.587 -5.153 -0.431
-5.548 -5.210 -0.336
-5.538 -5.206 -0.330
-5.452 -5.156 -0.293
-5.583 -5.152 -0.428
-5.548 -5.210 -0.336
-5.021 -5.033 0.015
-5.454 -5.156 -0.296
-5.452 -5.156 -0.293
-7.150 -7.658 0.511
-5.587 -5.153 -0.431
-7.224 -7.464 0.244
-7.743 -7.598 -0.145
-5.587 -5.153 -0.431
-7.680 -7.838 0.159
-7.680 -7.838 0.159
-5.021 -5.033 0.015
-5.417 -5.161 -0.252
-5.587 -5.153 -0.431
-5.491 -5.189 -0.297
-5.417 -5.161 -0.252
-5.420 -5.130 -0.287
-7.680 -7.838 0.159
-5.583 -5.152 -0.428
-5.583 -5.152 -0.428
-5.548 -5.210 -0.336
-5.579 -5.153 -0.423
-5.452 -5.156 -0.293
-5.584 -5.152 -0.429
-5.342 -5.053 -0.286
-5.491 -5.189 -0.298
-5.549 -5.210 -0.337
-5.421 -5.129 -0.288
-7.283 -7.709 0.430
-5.491 -5.189 -0.298
-5.455 -5.155 -0.297
-5.491 -5.189 -0.298
-5.314 -4.975 -0.335
-5.549 -5.210 -0.337
-5.584 -5.152 -0.429
-5.587 -5.153 -0.431
-5.587 -5.153 -0.431
-5.549 -5.210 -0.337
-7.681 -7.839 0.159
-5.452 -5.156 -0.293
-5.449 -5.138 -0.307
-5.587 -5.153 -0.431
-5.491 -5.189 -0.298
-5.452 -5.156 -0.293
-5.584 -5.152 -0.429
-7.153 -7.659 0.509
-5.398 -5.064 -0.330
-5.455 -5.155 -0.296
-5.587 -5.153 -0.431
-5.452 -5.156 -0.293
-5.421 -5.130 -0.288
-5.549 -5.210 -0.337
-5.549 -5.210 -0.337
-7.063 -7.286 0.226
-5.584 -5.152 -0.429
-5.549 -5.210 -0.337
-5.549 -5.210 -0.337
-5.440 -5.089 -0.347
-5.584 -5.152 -0.429
-5.587 -5.153 -0.431
-7.681 -7.839 0.159
-7.743 -7.599 -0.144
-5.587 -5.153 -0.431
-5.421 -5.130 -0.288
-5.314 -4.975 -0.335
-5.549 -5.210 -0.337
-7.165 -7.416 0.254
-5.314 -4.975 -0.335
-5.584 -5.152 -0.429
-7.227 -7.465 0.242
-4.853 -5.025 0.175
-7.682 -7.839 0.159
-5.549 -5.210 -0.337
-4.841 -5.058 0.220
-7.681 -7.839 0.159
-5.549 -5.210 -0.337
-5.584 -5.152 -0.429
-5.491 -5.189 -0.298
-5.587 -5.153 -0.431
-7.743 -7.599 -0.144
-5.389 -5.200 -0.187
-5.421 -5.130 -0.288
-7.227 -7.465 0.242
-5.389 -5.200 -0.187
-5.584 -5.152 -0.429
-7.227 -7.465 0.242
-4.854 -5.025 0.175
-5.314 -4.975 -0.335
-5.549 -5.210 -0.337
-5.452 -5.156 -0.293
-5.314 -4.975 -0.335
-5.587 -5.153 -0.431
-5.452 -5.156 -0.293
-5.491 -5.189 -0.298
-5.417 -5.161 -0.252
-5.421 -5.130 -0.288
-5.587 -5.153 -0.431
-5.417 -5.161 -0.252
-7.681 -7.839 0.159
-7.781 -7.806 0.025
-7.681 -7.839 0.159
-5.421 -5.130 -0.288
-5.397 -5.204 -0.191
-5.587 -5.153 -0.431
-5.452 -5.156 -0.293
-7.781 -7.803 0.022
-5.417 -5.127 -0.287
-5.420 -5.131 -0.286
-5.314 -4.975 -0.335
-5.421 -5.130 -0.288
-5.455 -5.155 -0.296
-7.681 -7.839 0.159
-5.421 -5.130 -0.288
-5.314 -4.975 -0.335
-5.421 -5.130 -0.288
-5.314 -4.975 -0.335
-5.491 -5.189 -0.298
-7.682 -7.839 0.159
-5.314 -4.975 -0.335
-5.415 -5.128 -0.283
-5.452 -5.156 -0.293
-7.681 -7.839 0.159
-5.314 -4.975 -0.335
-5.421 -5.130 -0.288
-5.455 -5.155 -0.296
-7.225 -7.468 0.246
-7.811 -7.585 -0.224
-5.421 -5.130 -0.288
-5.584 -5.152 -0.429
-5.417 -5.161 -0.252
-5.328 -5.017 -0.309
-5.330 -5.020 -0.307
-4.853 -5.025 0.175
-4.839 -5.059 0.223
-5.398 -5.064 -0.330
-5.314 -4.975 -0.335
-8.446 -7.555 -0.892
-7.682 -7.839 0.159
-5.509 -6.018 0.512
-5.314 -4.975 -0.335
-7.781 -7.806 0.025
-5.338 -5.052 -0.284
-5.358 -5.095 -0.260
-5.421 -5.130 -0.288
-5.421 -5.130 -0.288
-5.421 -5.130 -0.288
-7.782 -7.806 0.025
-7.782 -7.806 0.025
-5.579 -5.153 -0.424
-5.452 -5.156 -0.293
-5.421 -5.130 -0.288
-7.743 -7.599 -0.144
-5.452 -5.156 -0.293
-5.452 -5.156 -0.293
-5.579 -5.153 -0.424
-5.491 -5.189 -0.298
-5.549 -5.210 -0.337
-7.681 -7.839 0.159
-5.355 -5.093 -0.258
-5.314 -4.975 -0.335
-7.693 -7.839 0.147
-5.314 -4.975 -0.335
-7.283 -7.709 0.430
-5.314 -4.975 -0.335
-5.421 -5.130 -0.288
-5.421 -5.130 -0.288
-5.314 -4.975 -0.335
-7.682 -7.839 0.159
-5.314 -4.975 -0.335
-5.491 -5.189 -0.298
-5.440 -5.089 -0.347
-5.510 -6.017 0.510
-7.693 -7.839 0.147
-7.693 -7.839 0.147
-7.781 -7.806 0.025
-7.781 -7.806 0.025
-7.682 -7.839 0.159
-5.314 -4.975 -0.335
-5.453 -5.156 -0.293
-7.682 -7.839 0.159
-5.398 -5.064 -0.330
-5.461 -5.156 -0.302
-5.417 -5.161 -0.252
-5.398 -5.064 -0.330
-5.421 -5.130 -0.288
-5.421 -5.130 -0.288
-7.682 -7.839 0.159
-5.421 -5.130 -0.288
-5.584 -5.152 -0.429
-7.682 -7.839 0.159
-4.855 -5.025 0.174
-5.421 -5.130 -0.288
-7.682 -7.839 0.159
-7.682 -7.839 0.159
-7.682 -7.839 0.159
-5.398 -5.064 -0.331
-7.782 -7.806 0.024
-7.682 -7.839 0.159
-7.693 -7.839 0.147
-7.781 -7.806 0.025
-5.398 -5.064 -0.330
-7.682 -7.842 0.162
-5.534 -5.027 -0.503
-5.580 -5.153 -0.424
-5.455 -5.155 -0.296
-5.398 -5.201 -0.195
-5.421 -5.130 -0.288
-5.314 -4.975 -0.335
-5.314 -4.975 -0.335
-7.682 -7.839 0.159
-7.781 -7.805 0.024
-5.023 -5.032 0.013
-5.421 -5.130 -0.288
-7.682 -7.839 0.159
-5.453 -5.156 -0.293
-5.461 -5.156 -0.301
-4.651 -5.052 0.403
-7.743 -7.600 -0.144
-5.398 -5.201 -0.196
-5.491 -5.189 -0.298
-5.461 -5.156 -0.301
-5.487 -5.189 -0.294
-5.360 -4.872 -0.484
-5.312 -4.975 -0.334
-5.510 -6.017 0.510
-4.843 -5.058 0.219
-5.389 -5.201 -0.187
-5.413 -5.161 -0.248
-5.534 -5.027 -0.503
-7.682 -7.839 0.159
-5.536 -5.027 -0.505
-5.359 -4.872 -0.483
-5.359 -4.872 -0.483
-7.682 -7.839 0.159
-5.534 -5.027 -0.503
-7.781 -7.806 0.025
-5.359 -4.872 -0.483
-5.453 -5.156 -0.293
-7.743 -7.599 -0.144
-5.534 -5.027 -0.503
-5.359 -4.872 -0.483
-5.357 -4.872 -0.481
-5.023 -5.032 0.013
-5.588 -5.153 -0.432
-7.816 -7.637 -0.177
-4.858 -5.025 0.170
-5.461 -5.156 -0.302
-5.461 -5.156 -0.302
-5.403 -4.947 -0.452
-5.467 -4.999 -0.465
-5.461 -5.156 -0.302
-5.539 -5.027 -0.508
-4.858 -5.025 0.170
-5.360 -4.872 -0.484
-4.869 -5.025 0.159
-5.539 -5.027 -0.508
-5.461 -5.156 -0.302
-4.869 -5.025 0.159
-5.461 -5.156 -0.302
-5.461 -5.156 -0.302
-5.461 -5.156 -0.302
-5.461 -5.156 -0.302
-5.410 -4.947 -0.459
-4.869 -5.025 0.159
-5.461 -5.156 -0.302
-5.398 -5.201 -0.195
-4.849 -4.996 0.150
-5.398 -5.201 -0.195
-5.457 -5.157 -0.297
-5.457 -5.157 -0.297
-5.533 -5.027 -0.502
-5.457 -5.157 -0.297
-5.457 -5.157 -0.297
-5.457 -5.157 -0.297
-5.457 -5.157 -0.297
-5.457 -5.157 -0.297
-5.457 -5.157 -0.297
-5.538 -5.027 -0.507
-5.394 -5.202 -0.190
-5.457 -5.157 -0.297
-5.457 -5.157 -0.297
-5.313 -4.975 -0.335
-5.457 -5.157 -0.297
-5.457 -5.157 -0.297
-5.408 -4.947 -0.457
-5.457 -5.157 -0.297
-5.533 -5.027 -0.502
-5.533 -5.027 -0.502
-5.406 -4.947 -0.455
-5.538 -5.027 -0.507
-5.362 -4.872 -0.486
-5.362 -4.872 -0.486
-4.643 -5.056 0.415
-5.360 -4.872 -0.484
-5.437 -5.089 -0.344
-5.457 -5.157 -0.297
-5.402 -5.206 -0.195
-5.457 -5.157 -0.297
-5.457 -5.157 -0.297
-5.457 -5.157 -0.297
-5.360 -4.872 -0.484
-5.457 -5.157 -0.297
-4.849 -5.027 0.182
-5.457 -5.157 -0.297
-4.849 -5.027 0.182
-4.849 -5.027 0.182
-5.459 -4.964 -0.492
-5.394 -5.202 -0.190
-5.359 -4.872 -0.483
-5.406 -4.947 -0.455
-5.394 -5.202 -0.190
-5.406 -4.947 -0.455
-5.457 -5.157 -0.297
-5.457 -5.157 -0.297
-5.536 -5.027 -0.505
-5.457 -5.157 -0.297
-5.538 -5.027 -0.507
-5.393 -5.206 -0.186
-5.358 -4.872 -0.483
-5.536 -5.027 -0.505
-5.394 -5.202 -0.190
-5.457 -5.157 -0.297
-5.356 -4.872 -0.481
-5.457 -5.157 -0.297
-4.860 -5.028 0.171
-5.358 -4.872 -0.483
-5.467 -4.999 -0.464
-5.457 -5.157 -0.297
-5.457 -5.157 -0.297
-5.536 -5.027 -0.505
-5.457 -5.157 -0.297
-5.415 -5.162 -0.250
-5.457 -5.157 -0.297
-5.406 -4.947 -0.455
-5.451 -5.156 -0.292
-4.860 -5.028 0.171
-4.657 -5.055 0.401
-5.457 -5.157 -0.297
-5.536 -5.027 -0.505
-5.457 -5.157 -0.297
-5.406 -4.947 -0.455
-4.860 -5.028 0.171
-5.360 -4.872 -0.484
-4.860 -5.028 0.171
-5.416 -5.130 -0.283
-5.467 -4.999 -0.464
-5.360 -4.872 -0.484
-5.536 -5.027 -0.505
-5.459 -4.964 -0.492
-4.860 -5.028 0.171
-5.459 -4.964 -0.492
-5.457 -5.157 -0.297
-4.849 -5.027 0.182
-5.394 -5.202 -0.190
-5.359 -4.872 -0.483
-4.860 -5.028 0.171
-4.860 -5.028 0.171
-5.485 -5.189 -0.292
-5.406 -4.947 -0.455
-4.860 -5.028 0.171
-5.358 -4.872 -0.483
-5.439 -5.089 -0.346
-5.358 -4.872 -0.483
-5.536 -5.027 -0.505
-5.457 -5.157 -0.297
-5.311 -4.975 -0.332
-7.781 -7.806 0.025
-5.538 -5.027 -0.507
-5.457 -5.157 -0.297
-5.419 -5.130 -0.286
-4.849 -5.027 0.182
-4.657 -5.055 0.401
-5.467 -4.999 -0.464
-5.536 -5.027 -0.505
-5.341 -5.060 -0.278
-5.394 -5.202 -0.190
-5.460 -4.964 -0.493
-5.359 -4.872 -0.483
-5.451 -5.156 -0.292
-5.457 -5.157 -0.297
-5.325 -5.010 -0.313
-5.318 -5.019 -0.296
-7.681 -7.839 0.160
-5.507 -6.018 0.514
-5.489 -5.189 -0.296
-5.457 -5.157 -0.297
-5.460 -4.964 -0.493
-4.657 -5.055 0.401
-5.393 -5.206 -0.186
-5.415 -5.162 -0.250
-4.657 -5.055 0.401
-7.693 -7.839 0.147
-7.226 -7.465 0.242
-4.102 -3.897 -0.202
-5.402 -4.947 -0.452
-5.379 -4.892 -0.483
-5.406 -4.947 -0.455
-5.393 -5.206 -0.186
-5.359 -4.872 -0.483
-5.313 -4.975 -0.334
-7.743 -7.600 -0.143
-5.315 -4.975 -0.337
-4.658 -5.055 0.400
-7.681 -7.839 0.160
-5.536 -5.027 -0.505
-4.861 -5.028 0.170
-4.861 -5.028 0.170
-5.457 -5.157 -0.297
-5.379 -4.892 -0.483
-5.393 -5.206 -0.186
-7.681 -7.839 0.160
-7.781 -7.804 0.023
-5.393 -5.206 -0.186
-5.490 -5.189 -0.296
-7.693 -7.839 0.147
-5.452 -5.156 -0.292
-5.310 -4.863 -0.443
-5.536 -5.027 -0.505
-5.457 -5.157 -0.297
-7.681 -7.839 0.160
-5.465 -4.999 -0.463
-5.465 -4.999 -0.463
-5.465 -4.999 -0.463
-5.509 -6.018 0.512
-7.693 -7.839 0.147
-5.490 -5.189 -0.296
-5.393 -5.206 -0.186
-7.446 -7.886 0.433
-5.460 -5.156 -0.301
-5.393 -5.206 -0.186
-5.357 -4.872 -0.481
-5.402 -4.947 -0.452
-5.417 -5.129 -0.284
-5.379 -4.892 -0.483
-5.393 -5.206 -0.186
-5.452 -5.156 -0.292
-7.681 -7.839 0.160
-5.393 -5.206 -0.186
-5.490 -5.189 -0.296
-7.661 -7.812 0.153
-4.861 -5.028 0.170
-5.416 -5.162 -0.250
-5.394 -5.202 -0.190
-7.681 -7.839 0.160
-7.681 -7.839 0.160
-5.393 -5.206 -0.186
-5.393 -5.206 -0.186
-7.681 -7.839 0.160
-5.490 -5.189 -0.296
-5.416 -5.162 -0.250
-5.393 -5.206 -0.186
-5.452 -5.156 -0.292
-7.693 -7.839 0.148
-4.847 -5.027 0.184
-5.393 -5.206 -0.186
-4.847 -5.027 0.184
-5.402 -4.947 -0.452
-5.452 -5.156 -0.292
-5.324 -4.848 -0.472
-5.359 -4.872 -0.483
-5.534 -5.027 -0.503
-5.402 -4.947 -0.452
-5.441 -4.969 -0.468
-5.357 -4.872 -0.481
-5.534 -5.027 -0.503
-5.458 -4.964 -0.491
-5.534 -5.027 -0.503
-5.402 -4.947 -0.452
-5.534 -5.027 -0.503
-5.458 -4.964 -0.491
-5.357 -4.872 -0.481
-5.536 -5.027 -0.505
-5.458 -4.964 -0.491
-5.402 -4.947 -0.452
-5.534 -5.027 -0.503
-5.534 -5.027 -0.503
-5.458 -4.964 -0.491
-5.465 -4.999 -0.463
-5.534 -5.027 -0.503
-5.534 -5.027 -0.503
-5.441 -4.969 -0.468
-5.534 -5.027 -0.503
-5.302 -4.863 -0.436
-5.402 -4.947 -0.452
-5.534 -5.027 -0.503
-5.536 -5.027 -0.505
-5.402 -4.947 -0.452
-5.458 -4.964 -0.491
-5.458 -4.964 -0.491
-5.536 -5.027 -0.505
-5.465 -4.999 -0.463
-5.402 -4.947 -0.452
-5.402 -4.947 -0.452
-5.357 -4.872 -0.481
-5.402 -4.947 -0.452
-5.315 -4.848 -0.464
-5.441 -4.969 -0.468
-5.315 -4.848 -0.464
-5.315 -4.848 -0.464
-5.534 -5.027 -0.503
-5.357 -4.872 -0.481
-5.357 -4.872 -0.481
-5.379 -4.892 -0.483
-5.534 -5.027 -0.503
-5.357 -4.872 -0.481
-5.357 -4.872 -0.481
-5.302 -4.863 -0.436
-5.302 -4.863 -0.436
-5.402 -4.947 -0.452
-5.302 -4.863 -0.436
-5.357 -4.872 -0.481
-5.402 -4.947 -0.452
-5.402 -4.947 -0.452
-5.356 -4.872 -0.480
-5.356 -4.872 -0.480
-5.440 -4.970 -0.467
-5.402 -4.947 -0.451
-5.356 -4.872 -0.480
-5.378 -4.892 -0.483
-5.402 -4.947 -0.451
-5.402 -4.947 -0.451
-5.536 -5.027 -0.505
-5.536 -5.027 -0.505
-5.033 -4.574 -0.456
-5.402 -4.947 -0.451
-5.402 -4.947 -0.451
-5.358 -4.872 -0.483
-5.533 -5.027 -0.502
-5.379 -4.892 -0.483
-5.440 -4.969 -0.467
-5.536 -5.027 -0.505
-5.533 -5.027 -0.502
-5.315 -4.848 -0.463
-5.356 -4.872 -0.481
-5.356 -4.872 -0.481
-5.536 -5.027 -0.505
-5.356 -4.872 -0.481
-5.356 -4.872 -0.481
-5.379 -4.892 -0.483
-5.402 -4.947 -0.451
-5.379 -4.892 -0.483
-5.533 -5.027 -0.502
-5.440 -4.969 -0.467
-5.402 -4.947 -0.451
-5.379 -4.892 -0.483
-5.302 -4.863 -0.435
-5.402 -4.947 -0.451
-5.356 -4.872 -0.481
-5.356 -4.872 -0.481
-5.356 -4.872 -0.481
-5.402 -4.947 -0.451
-5.533 -5.027 -0.502
-5.356 -4.872 -0.481
-5.356 -4.872 -0.481
-5.302 -4.863 -0.435
-5.356 -4.872 -0.481
-5.356 -4.872 -0.481
-5.379 -4.892 -0.483
-5.465 -4.999 -0.462
-5.356 -4.872 -0.481
-5.315 -4.848 -0.463
-5.533 -5.027 -0.502
-5.302 -4.863 -0.435
-5.402 -4.947 -0.451
-5.533 -5.027 -0.502
-5.458 -4.964 -0.490
-5.533 -5.027 -0.502
-5.458 -4.964 -0.490
-5.379 -4.892 -0.483
-5.458 -4.964 -0.490
-5.440 -4.969 -0.467
-5.302 -4.863 -0.435
-5.440 -4.969 -0.467
-5.536 -5.027 -0.505
-5.465 -4.999 -0.462
-5.302 -4.863 -0.435
-5.458 -4.964 -0.490
-5.533 -5.027 -0.502
-5.533 -5.027 -0.502
-5.457 -5.157 -0.297
-5.536 -5.027 -0.505
-5.379 -4.892 -0.483
-5.440 -4.969 -0.467
-5.379 -4.892 -0.483
-5.458 -4.964 -0.491
-5.379 -4.892 -0.483
-5.457 -5.157 -0.297
-5.457 -5.157 -0.297
-5.315 -4.848 -0.463
-5.464 -4.999 -0.462
-5.458 -4.964 -0.491
-5.379 -4.892 -0.483
-5.402 -4.947 -0.451
-5.302 -4.863 -0.435
-5.458 -4.964 -0.491
-5.458 -4.964 -0.491
-5.458 -4.964 -0.491
-5.440 -4.969 -0.467
-5.457 -5.157 -0.297
-5.457 -5.157 -0.297
-5.356 -4.872 -0.481
-5.464 -4.999 -0.462
-5.402 -4.947 -0.451
-5.457 -5.157 -0.297
-5.379 -4.892 -0.483
-5.440 -4.969 -0.467
-5.457 -5.157 -0.297
-5.458 -4.964 -0.491
-5.379 -4.892 -0.483
-5.440 -4.969 -0.467
-5.402 -4.947 -0.451
-5.464 -4.999 -0.462
-5.379 -4.892 -0.483
-5.536 -5.027 -0.505
-5.315 -4.848 -0.463
-5.315 -4.848 -0.463
-5.457 -5.157 -0.297
-5.394 -5.202 -0.190
-5.457 -5.157 -0.297
-5.379 -4.892 -0.483
-5.536 -5.027 -0.505
-5.379 -4.892 -0.483
-5.315 -4.848 -0.463
-5.379 -4.892 -0.483
-5.379 -4.892 -0.483
-5.533 -5.027 -0.502
-5.302 -4.863 -0.435
-5.315 -4.848 -0.463
-5.440 -4.969 -0.467
-5.465 -4.999 -0.462
-5.538 -5.027 -0.507
-5.457 -5.157 -0.297
-5.457 -5.157 -0.297
-5.458 -4.964 -0.491
-5.379 -4.892 -0.483
-5.302 -4.863 -0.435
-5.458 -4.964 -0.491
-5.402 -4.947 -0.451
-5.458 -4.964 -0.491
-5.458 -4.964 -0.491
-5.457 -5.157 -0.297
-5.457 -5.157 -0.297
-5.379 -4.892 -0.483
-5.457 -5.157 -0.297
-5.379 -4.892 -0.483
-5.457 -5.157 -0.297
-5.457 -5.157 -0.297
-5.356 -4.872 -0.481
-5.379 -4.892 -0.483
-5.464 -4.999 -0.462
-5.379 -4.892 -0.483
-5.379 -4.892 -0.483
-5.538 -5.027 -0.507
-5.302 -4.863 -0.435
-5.538 -5.027 -0.507
-5.458 -4.964 -0.491
-5.536 -5.027 -0.505
-5.458 -4.964 -0.491
-5.457 -5.157 -0.297
-5.457 -5.157 -0.297
-5.379 -4.892 -0.483
-5.394 -5.202 -0.190
-5.458 -4.964 -0.491
-5.464 -4.999 -0.462
-5.533 -5.027 -0.502
-5.379 -4.892 -0.483
-5.536 -5.027 -0.505
-5.538 -5.027 -0.507
-5.538 -5.027 -0.507
-5.536 -5.027 -0.505
-4.043 -3.907 -0.132
-5.379 -4.892 -0.483
-5.457 -5.157 -0.297
-5.464 -4.999 -0.462
-5.379 -4.892 -0.483
-5.379 -4.892 -0.483
-5.315 -4.848 -0.463
-5.379 -4.892 -0.483
-5.464 -4.999 -0.462
-5.533 -5.027 -0.502
-5.356 -4.872 -0.481
-4.849 -5.027 0.182
-5.536 -5.027 -0.505
-5.302 -4.863 -0.435
-5.379 -4.892 -0.483
-5.358 -4.872 -0.483
-5.533 -5.027 -0.502
-5.533 -5.027 -0.502
-5.379 -4.892 -0.483
-5.379 -4.892 -0.483
-5.457 -5.157 -0.297
-5.536 -5.027 -0.505
-5.457 -5.157 -0.297
-5.536 -5.027 -0.505
-5.458 -4.964 -0.491
-5.379 -4.892 -0.483
-5.379 -4.892 -0.483
-5.457 -5.157 -0.297
-5.536 -5.027 -0.505
-5.315 -4.848 -0.463
-5.302 -4.863 -0.435
-5.356 -4.872 -0.481
-5.379 -4.892 -0.483
-5.379 -4.892 -0.483
-5.379 -4.892 -0.483
-5.356 -4.872 -0.481
-5.457 -5.157 -0.297
-5.379 -4.892 -0.483
-5.379 -4.892 -0.483
-5.440 -4.969 -0.467
-5.533 -5.027 -0.502
-5.402 -4.947 -0.451
-5.379 -4.892 -0.483
-5.536 -5.027 -0.505
-5.394 -5.202 -0.190
-5.394 -5.202 -0.190
-5.379 -4.892 -0.483
-5.379 -4.892 -0.483
-5.302 -4.863 -0.435
-5.379 -4.892 -0.483
-5.379 -4.892 -0.483
-5.449 -5.157 -0.289
-4.077 -3.978 -0.095
-5.379 -4.892 -0.483
-5.457 -5.157 -0.297
-5.536 -5.027 -0.505
-7.681 -7.840 0.160
-5.457 -5.157 -0.297
-5.379 -4.892 -0.483
-5.457 -5.157 -0.297
-5.457 -5.157 -0.297
-5.458 -4.964 -0.491
-5.457 -5.157 -0.297
-5.379 -4.892 -0.483
-4.077 -3.978 -0.095
-5.315 -4.848 -0.463
-5.394 -5.202 -0.190
-5.533 -5.027 -0.502
-5.533 -5.027 -0.502
-5.457 -5.157 -0.297
-5.406 -4.947 -0.455
-5.457 -5.157 -0.297
-5.394 -5.202 -0.190
-5.379 -4.892 -0.483
-5.460 -4.964 -0.493
-5.536 -5.027 -0.505
-5.415 -5.162 -0.250
-5.379 -4.892 -0.483
-5.379 -4.892 -0.483
-5.402 -4.947 -0.451
-5.536 -5.027 -0.505
-5.359 -4.872 -0.483
-5.536 -5.027 -0.505
-5.379 -4.892 -0.483
-5.379 -4.892 -0.483
-5.464 -4.999 -0.462
-5.536 -5.027 -0.505
-5.533 -5.027 -0.502
-5.533 -5.028 -0.502
-5.378 -4.892 -0.483
-5.536 -5.027 -0.505
-5.536 -5.027 -0.505
-5.440 -4.969 -0.467
-5.379 -4.892 -0.483
-5.358 -4.872 -0.483
-5.538 -5.027 -0.507
-5.302 -4.863 -0.435
-5.457 -5.157 -0.297
-5.379 -4.892 -0.483
-5.489 -5.190 -0.296
-5.457 -5.157 -0.297
-5.402 -4.947 -0.451
-5.459 -4.964 -0.492
-5.536 -5.027 -0.505
-5.442 -4.969 -0.469
-5.379 -4.892 -0.483
-5.315 -4.848 -0.463
-5.440 -4.969 -0.467
-5.394 -5.202 -0.190
-5.457 -5.155 -0.298
-5.489 -5.190 -0.296
-6.190 -6.465 0.269
-5.449 -5.157 -0.289
-5.533 -5.027 -0.502
-4.043 -3.907 -0.132
-5.457 -5.157 -0.297
-5.536 -5.027 -0.505
-5.536 -5.027 -0.505
-5.379 -4.892 -0.483
-5.379 -4.892 -0.483
-5.457 -5.157 -0.297
-5.356 -4.872 -0.481
-5.489 -5.190 -0.296
-5.538 -5.027 -0.507
-4.077 -3.978 -0.095
-5.457 -5.157 -0.297
-5.302 -4.863 -0.435
-5.533 -5.027 -0.502
-5.379 -4.892 -0.483
-5.379 -4.892 -0.483
-5.449 -5.157 -0.289
-5.536 -5.027 -0.505
-5.394 -5.202 -0.190
-5.379 -4.892 -0.483
-5.467 -4.999 -0.464
-5.538 -5.027 -0.507
-5.533 -5.027 -0.502
-5.536 -5.027 -0.505
-7.769 -7.807 0.035
-5.394 -5.202 -0.190
-5.485 -5.189 -0.292
-5.358 -4.872 -0.483
-5.379 -4.892 -0.483
-5.457 -5.157 -0.297
-5.536 -5.027 -0.505
-5.536 -5.027 -0.505
-5.358 -4.872 -0.483
-5.379 -4.892 -0.483
-5.536 -5.027 -0.505
-5.313 -4.975 -0.334
-5.451 -5.156 -0.292
-5.379 -4.892 -0.483
-5.358 -4.872 -0.483
-5.460 -4.964 -0.493
-4.043 -3.908 -0.131
-4.043 -3.909 -0.130
-5.533 -5.027 -0.502
-5.457 -5.157 -0.297
-4.043 -3.907 -0.132
-5.536 -5.027 -0.505
-5.457 -5.157 -0.297
-5.439 -5.089 -0.346
-5.379 -4.892 -0.483
-5.440 -4.969 -0.467
-4.043 -3.907 -0.132
-5.393 -5.206 -0.186
-5.451 -5.156 -0.292
-5.315 -4.848 -0.463
-5.457 -5.157 -0.297
-5.415 -5.162 -0.250
-5.460 -4.964 -0.493
-5.380 -4.892 -0.484
-5.315 -4.848 -0.463
-5.379 -4.892 -0.483
-7.164 -7.418 0.258
-5.379 -4.892 -0.483
-5.379 -4.892 -0.483
-5.313 -4.975 -0.334
-5.458 -4.964 -0.491
-5.458 -4.964 -0.491
-5.451 -5.156 -0.292
-5.536 -5.027 -0.505
-5.536 -5.027 -0.505
-5.379 -4.892 -0.483
-5.315 -4.848 -0.463
-5.313 -4.975 -0.334
-5.460 -4.964 -0.493
-5.315 -4.848 -0.463
-5.460 -4.964 -0.493
-5.415 -5.162 -0.250
-7.518 -7.789 0.269
-5.489 -5.190 -0.296
-4.043 -3.907 -0.132
-5.415 -5.162 -0.250
-5.419 -5.130 -0.286
-4.043 -3.907 -0.132
-4.043 -3.907 -0.132
-5.420 -5.130 -0.287
-5.379 -4.892 -0.483
-4.077 -3.978 -0.095
-5.460 -4.964 -0.493
-5.379 -4.892 -0.483
-6.180 -6.465 0.278
-5.458 -4.964 -0.491
-5.419 -5.130 -0.286
-5.379 -4.892 -0.483
-5.533 -5.027 -0.502
-5.458 -4.964 -0.491
-5.533 -5.027 -0.502
-5.379 -4.892 -0.483
-5.315 -4.848 -0.463
-5.379 -4.892 -0.483
-5.379 -4.892 -0.483
-5.458 -4.964 -0.491
-5.356 -4.872 -0.481
-5.533 -5.027 -0.502
-5.313 -4.975 -0.334
-5.536 -5.027 -0.505
-5.356 -4.872 -0.481
-5.458 -4.964 -0.491
-5.460 -4.964 -0.493
-5.419 -5.130 -0.286
-7.681 -7.839 0.160
-5.507 -6.018 0.514
-5.533 -5.027 -0.502
-5.315 -4.848 -0.463
-5.536 -5.027 -0.505
-5.379 -4.892 -0.483
-5.419 -5.130 -0.286
-7.280 -7.695 0.418
-4.043 -3.907 -0.132
-5.315 -4.848 -0.463
-5.379 -4.892 -0.483
-7.681 -7.839 0.160
-5.467 -4.999 -0.464
-5.313 -4.975 -0.334
-5.451 -5.156 -0.292
-5.465 -4.999 -0.462
-5.315 -4.848 -0.463
-5.315 -4.848 -0.463
-5.419 -5.130 -0.286
-5.302 -4.863 -0.435
-5.379 -4.892 -0.483
-5.440 -4.969 -0.467
-5.379 -4.892 -0.483
-5.379 -4.892 -0.483
-5.458 -4.964 -0.491
-5.419 -5.130 -0.286
-5.460 -4.964 -0.493
-5.315 -4.848 -0.463
-5.465 -4.999 -0.462
-5.315 -4.848 -0.463
-5.379 -4.892 -0.483
-5.379 -4.892 -0.483
-5.315 -4.848 -0.463
-5.302 -4.863 -0.435
-5.379 -4.892 -0.483
-5.465 -4.999 -0.462
-5.459 -4.964 -0.492
-7.781 -7.806 0.025
-5.379 -4.892 -0.483
-5.402 -4.947 -0.451
-8.449 -7.687 -0.762
-8.449 -7.687 -0.762
-9.118 -7.620 -1.495
-8.455 -7.687 -0.768
-8.987 -7.689 -1.296
-8.823 -7.613 -1.211
-8.823 -7.613 -1.211
-9.112 -7.621 -1.487
-8.409 -7.795 -0.611
-8.823 -7.613 -1.211
-8.409 -7.795 -0.611
-9.111 -7.622 -1.487
-8.570 -7.709 -0.858
-8.452 -7.687 -0.764
-8.987 -7.689 -1.296
-8.043 -7.695 -0.345
-8.043 -7.695 -0.345
-8.983 -7.689 -1.292
-8.314 -7.764 -0.549
-9.062 -7.728 -1.331
-8.043 -7.695 -0.345
-9.112 -7.621 -1.487
-8.055 -7.741 -0.310
-9.112 -7.622 -1.487
-8.043 -7.695 -0.345
-9.112 -7.622 -1.487
-8.314 -7.764 -0.549
-8.840 -7.615 -1.224
-8.840 -7.615 -1.224
-8.840 -7.615 -1.224
-9.112 -7.622 -1.487
-9.112 -7.622 -1.487
-8.288 -7.665 -0.620
-8.983 -7.689 -1.291
-8.823 -7.613 -1.211
-9.062 -7.728 -1.331
-8.288 -7.665 -0.620
-8.823 -7.613 -1.211
-8.345 -7.803 -0.539
-9.058 -7.728 -1.328
-8.452 -7.687 -0.764
-8.043 -7.695 -0.345
-9.172 -7.754 -1.415
-8.823 -7.613 -1.211
-8.983 -7.689 -1.292
-9.058 -7.728 -1.328
-9.172 -7.754 -1.415
-9.058 -7.728 -1.328
-9.112 -7.621 -1.487
-8.983 -7.689 -1.292
-8.043 -7.695 -0.345
-9.172 -7.754 -1.415
-9.058 -7.728 -1.328
-8.288 -7.665 -0.620
-8.464 -7.605 -0.858
-8.043 -7.695 -0.345
-8.055 -7.741 -0.310
-9.112 -7.621 -1.487
-8.288 -7.665 -0.620
-9.058 -7.728 -1.328
-9.062 -7.728 -1.332
-8.288 -7.665 -0.620
-9.112 -7.621 -1.487
-8.288 -7.665 -0.620
-8.345 -7.803 -0.539
-8.823 -7.613 -1.211
-7.709 -7.549 -0.156
-8.288 -7.665 -0.620
-8.452 -7.687 -0.764
-8.452 -7.687 -0.764
-9.112 -7.621 -1.487
-8.338 -7.796 -0.539
-9.118 -7.620 -1.495
-8.826 -7.613 -1.214
-8.409 -7.795 -0.611
-9.062 -7.728 -1.331
-9.172 -7.754 -1.415
-8.823 -7.613 -1.211
-9.058 -7.728 -1.328
-8.987 -7.689 -1.296
-9.172 -7.754 -1.415
-8.409 -7.795 -0.610
-9.172 -7.754 -1.415
-8.570 -7.709 -0.858
-9.111 -7.621 -1.487
-8.043 -7.695 -0.345
-8.055 -7.741 -0.310
-8.411 -7.794 -0.614
-8.451 -7.687 -0.764
-8.043 -7.695 -0.345
-8.055 -7.741 -0.310
-9.172 -7.754 -1.415
-8.055 -7.741 -0.310
-9.136 -7.758 -1.375
-8.055 -7.741 -0.310
-9.059 -7.728 -1.328
-8.288 -7.665 -0.620
-8.282 -7.769 -0.513
-8.449 -7.705 -0.744
-7.709 -7.549 -0.156
-8.043 -7.695 -0.345
-9.147 -7.622 -1.522
-8.043 -7.695 -0.345
-8.988 -7.689 -1.297
-8.055 -7.741 -0.310
-8.288 -7.665 -0.620
-8.983 -7.689 -1.292
-9.112 -7.621 -1.488
-8.345 -7.803 -0.539
-9.172 -7.754 -1.415
-9.172 -7.754 -1.415
-8.345 -7.803 -0.539
-8.409 -7.795 -0.611
-9.112 -7.621 -1.487
-8.409 -7.795 -0.611
-8.055 -7.741 -0.310
-9.172 -7.754 -1.415
-8.983 -7.689 -1.292
-8.345 -7.803 -0.539
-8.043 -7.695 -0.345
-9.059 -7.728 -1.328
-8.072 -7.742 -0.327
-8.988 -7.689 -1.297
-8.409 -7.795 -0.611
-8.288 -7.665 -0.620
-8.044 -7.695 -0.346
-8.452 -7.687 -0.764
-8.288 -7.665 -0.620
-8.823 -7.613 -1.211
-8.044 -7.695 -0.346
-9.112 -7.621 -1.488
-9.059 -7.728 -1.329
-9.059 -7.728 -1.329
-9.173 -7.754 -1.416
-8.823 -7.613 -1.211
-9.059 -7.728 -1.329
-8.345 -7.803 -0.539
-8.345 -7.803 -0.539
-8.452 -7.687 -0.764
-9.059 -7.728 -1.329
-9.173 -7.754 -1.416
-9.173 -7.754 -1.416
-9.059 -7.728 -1.329
-9.148 -7.622 -1.523
-8.841 -7.615 -1.225
-8.044 -7.695 -0.346
-8.841 -7.615 -1.225
-8.824 -7.613 -1.212
-8.347 -7.803 -0.541
-8.988 -7.689 -1.297
-8.044 -7.695 -0.346
-8.988 -7.689 -1.297
-8.044 -7.695 -0.346
-9.059 -7.728 -1.329
-8.988 -7.689 -1.297
-8.452 -7.687 -0.764
-8.044 -7.695 -0.346
-8.044 -7.695 -0.346
-8.823 -7.613 -1.211
-9.059 -7.728 -1.329
-9.113 -7.621 -1.488
-8.984 -7.689 -1.293
-8.409 -7.795 -0.611
-8.044 -7.695 -0.346
-9.173 -7.754 -1.416
-9.059 -7.728 -1.329
-8.823 -7.613 -1.211
-8.044 -7.695 -0.346
-8.044 -7.695 -0.346
-8.718 -7.780 -0.936
-8.984 -7.689 -1.293
-9.173 -7.754 -1.416
-8.345 -7.803 -0.539
-8.464 -7.605 -0.859
-9.173 -7.754 -1.416
-8.345 -7.803 -0.539
-8.823 -7.613 -1.211
-8.044 -7.695 -0.346
-9.003 -7.771 -1.232
-8.072 -7.742 -0.327
-8.465 -7.604 -0.860
-9.059 -7.728 -1.329
-8.312 -7.747 -0.564
-8.823 -7.613 -1.211
-8.296 -7.668 -0.626
-9.059 -7.728 -1.329
-8.314 -7.764 -0.549
-8.044 -7.695 -0.346
-8.823 -7.613 -1.211
-8.044 -7.695 -0.346
-8.314 -7.764 -0.549
-8.345 -7.803 -0.539
-9.173 -7.754 -1.416
-8.984 -7.689 -1.292
-8.044 -7.695 -0.346
-8.823 -7.613 -1.211
-8.283 -7.769 -0.514
-9.173 -7.754 -1.416
-8.312 -7.747 -0.564
-8.072 -7.742 -0.327
-8.452 -7.687 -0.764
-9.173 -7.754 -1.416
-8.823 -7.613 -1.211
-8.288 -7.665 -0.620
-9.173 -7.754 -1.416
-8.314 -7.764 -0.549
-9.173 -7.754 -1.416
-8.823 -7.613 -1.211
-8.044 -7.695 -0.346
-8.450 -7.705 -0.744
-9.059 -7.728 -1.329
-8.283 -7.769 -0.513
-8.409 -7.795 -0.611
-8.988 -7.689 -1.297
-8.346 -7.803 -0.540
-9.173 -7.754 -1.416
-8.409 -7.795 -0.611
-9.173 -7.754 -1.416
-9.173 -7.754 -1.416
-8.346 -7.748 -0.597
-8.510 -7.607 -0.902
-9.173 -7.754 -1.416
-8.464 -7.605 -0.859
-8.409 -7.795 -0.611
-8.044 -7.695 -0.346
-8.044 -7.695 -0.346
-8.044 -7.695 -0.346
-9.173 -7.754 -1.416
-8.288 -7.665 -0.620
-9.173 -7.754 -1.416
-8.056 -7.741 -0.311
-8.823 -7.613 -1.211
-7.709 -7.549 -0.157
-8.452 -7.687 -0.764
-8.303 -7.770 -0.533
-8.296 -7.668 -0.626
-8.056 -7.741 -0.311
-8.409 -7.795 -0.611
-8.296 -7.668 -0.626
-8.409 -7.795 -0.611
-8.296 -7.668 -0.626
-9.173 -7.754 -1.416
-9.059 -7.728 -1.329
-8.362 -7.802 -0.557
-8.345 -7.803 -0.539
-8.345 -7.803 -0.539
-9.173 -7.754 -1.416
-8.389 -7.677 -0.709
-8.872 -7.664 -1.207
-8.072 -7.742 -0.327
-8.823 -7.613 -1.212
-9.059 -7.728 -1.329
-8.362 -7.802 -0.557
-8.409 -7.795 -0.611
-7.773 -7.730 -0.039
-7.773 -7.730 -0.039
-8.296 -7.668 -0.625
-8.282 -7.769 -0.513
-7.773 -7.731 -0.039
-8.409 -7.795 -0.611
-7.129 -7.481 0.355
-9.059 -7.728 -1.329
-8.754 -7.555 -1.197
-7.773 -7.730 -0.039
-5.426 -5.024 -0.399
-5.590 -5.196 -0.390
-7.129 -7.481 0.354
-5.424 -5.129 -0.292
-5.416 -5.160 -0.253
-9.173 -7.754 -1.416
-8.362 -7.802 -0.557
-5.590 -5.196 -0.390
-5.419 -5.161 -0.255
-8.409 -7.795 -0.611
-8.362 -7.802 -0.557
-5.419 -5.161 -0.255
-5.424 -5.129 -0.292
-8.314 -7.764 -0.549
-5.495 -5.188 -0.303
-5.520 -5.137 -0.379
-8.506 -7.502 -1.006