-7.719 -9.754 2.035
-7.719 -9.754 2.035
-7.719 -9.754 2.035
-17.530 -8.181 -9.351
-17.465 -8.187 -9.280
-7.698 -9.769 2.072
-17.465 -8.187 -9.280
-7.698 -9.769 2.072
-16.875 -7.810 -9.106
-17.528 -8.181 -9.348
-17.528 -8.181 -9.348
-16.522 -7.786 -8.778
-7.696 -9.769 2.073
-6.262 -8.153 1.894
-7.696 -9.769 2.073
-6.262 -8.153 1.894
-7.696 -9.769 2.073
-17.528 -8.181 -9.348
-16.469 -7.807 -8.705
-17.528 -8.181 -9.348
-17.528 -8.181 -9.348
-14.526 -7.344 -7.209
-6.269 -8.150 1.884
-6.269 -8.150 1.884
-6.269 -8.150 1.884
-17.665 -8.158 -9.508
-17.528 -8.181 -9.349
-17.665 -8.158 -9.508
-7.696 -9.770 2.075
-16.875 -7.810 -9.106
-9.497 -9.299 -0.206
-17.462 -8.187 -9.276
-7.695 -9.770 2.075
-17.665 -8.158 -9.508
-17.665 -8.158 -9.508
-17.665 -8.158 -9.508
-14.526 -7.344 -7.210
-14.608 -7.329 -7.302
-17.665 -8.158 -9.508
-17.665 -8.158 -9.508
-6.261 -8.153 1.895
-17.528 -8.181 -9.349
-16.468 -7.807 -8.703
-17.528 -8.181 -9.348
-17.665 -8.158 -9.508
-14.525 -7.344 -7.209
-17.665 -8.158 -9.508
-7.696 -9.770 2.075
-14.526 -7.344 -7.209
-17.528 -8.181 -9.349
-17.263 -8.184 -9.080
-7.705 -9.770 2.066
-7.705 -9.770 2.066
-14.613 -7.327 -7.308
-16.480 -7.806 -8.717
-16.533 -7.786 -8.791
-17.902 -8.147 -9.757
-16.533 -7.785 -8.791
-14.531 -7.343 -7.215
-17.539 -8.180 -9.361
-7.705 -9.770 2.066
-7.705 -9.770 2.066
-16.480 -7.806 -8.717
-7.705 -9.769 2.064
-17.676 -8.157 -9.520
-17.475 -8.186 -9.290
-16.480 -7.806 -8.717
-17.676 -8.157 -9.520
-6.263 -8.154 1.894
-9.507 -9.300 -0.214
-7.720 -9.763 2.043
-7.720 -9.763 2.043
-7.720 -9.763 2.043
-7.720 -9.763 2.043
-16.480 -7.806 -8.717
-14.613 -7.327 -7.308
-17.539 -8.180 -9.361
-7.705 -9.770 2.066
-16.480 -7.806 -8.717
-16.480 -7.806 -8.717
-7.910 -7.354 -0.557
-16.480 -7.806 -8.717
-14.531 -7.343 -7.215
-16.480 -7.806 -8.717
-7.705 -9.769 2.064
-17.902 -8.147 -9.756
-17.676 -8.157 -9.520
-17.676 -8.157 -9.520
-17.676 -8.157 -9.520
-7.705 -9.770 2.066
-17.539 -8.180 -9.361
-17.902 -8.147 -9.756
-7.910 -7.354 -0.557
-16.480 -7.806 -8.717
-7.563 -9.288 1.722
-17.541 -8.180 -9.362
-14.531 -7.343 -7.215
-16.887 -7.809 -9.120
-16.480 -7.806 -8.717
-14.531 -7.343 -7.215
-16.480 -7.806 -8.717
-17.676 -8.157 -9.520
-16.480 -7.806 -8.717
-16.480 -7.806 -8.717
-16.480 -7.806 -8.717
-7.705 -9.769 2.064
-16.480 -7.806 -8.717
-17.539 -8.180 -9.361
-17.539 -8.180 -9.361
-14.613 -7.328 -7.309
-16.887 -7.809 -9.119
-17.902 -8.147 -9.756
-17.902 -8.147 -9.757
-14.613 -7.328 -7.309
-7.711 -9.766 2.055
-14.613 -7.327 -7.308
-14.613 -7.328 -7.309
-17.539 -8.180 -9.361
-7.910 -7.354 -0.557
-17.541 -8.180 -9.363
-16.480 -7.806 -8.717
-17.676 -8.157 -9.520
-17.263 -8.184 -9.080
-17.676 -8.157 -9.520
-14.531 -7.343 -7.215
-7.711 -9.766 2.055
-14.613 -7.327 -7.308
-14.613 -7.328 -7.309
-17.902 -8.147 -9.756
-14.613 -7.327 -7.308
-17.676 -8.157 -9.520
-14.531 -7.343 -7.216
-16.480 -7.806 -8.717
-14.897 -7.354 -7.567
-17.539 -8.180 -9.361
-16.480 -7.806 -8.717
-17.902 -8.147 -9.757
-17.676 -8.157 -9.520
-17.676 -8.157 -9.520
-16.887 -7.809 -9.119
-16.480 -7.806 -8.717
-17.676 -8.157 -9.520
-17.539 -8.180 -9.361
-17.676 -8.157 -9.520
-17.539 -8.180 -9.361
-17.475 -8.186 -9.290
-17.676 -8.157 -9.520
-17.676 -8.157 -9.520
-17.676 -8.157 -9.520
-17.676 -8.157 -9.520
-17.539 -8.180 -9.361
-6.263 -8.154 1.894
-7.705 -9.770 2.066
-17.539 -8.180 -9.361
-7.910 -7.354 -0.557
-16.480 -7.806 -8.717
-17.676 -8.157 -9.520
-14.613 -7.327 -7.308
-17.676 -8.157 -9.520
-17.676 -8.157 -9.520
-17.539 -8.180 -9.361
-16.480 -7.806 -8.717
-16.533 -7.786 -8.791
-14.613 -7.327 -7.308
-14.613 -7.327 -7.308
-7.711 -9.766 2.055
-17.263 -8.184 -9.080
-14.613 -7.328 -7.309
-17.902 -8.147 -9.756
-17.902 -8.147 -9.757
-17.539 -8.180 -9.361
-14.897 -7.354 -7.566
-7.911 -7.354 -0.557
-17.676 -8.157 -9.520
-14.531 -7.343 -7.216
-7.871 -9.406 1.533
-14.612 -7.327 -7.308
-16.532 -7.786 -8.790
-17.902 -8.147 -9.756
-17.539 -8.180 -9.360
-17.539 -8.180 -9.360
-6.263 -8.154 1.894
-16.478 -7.806 -8.715
-17.675 -8.157 -9.519
-17.538 -8.180 -9.360
-16.885 -7.809 -9.117
-17.675 -8.157 -9.519
-7.704 -9.770 2.066
-16.479 -7.806 -8.716
-17.675 -8.157 -9.520
-6.262 -8.154 1.894
-17.474 -8.186 -9.290
-14.531 -7.343 -7.215
-16.479 -7.806 -8.716
-16.479 -7.806 -8.716
-14.531 -7.343 -7.215
-17.675 -8.157 -9.519
-17.539 -8.180 -9.360
-17.675 -8.157 -9.519
-17.474 -8.186 -9.290
-17.474 -8.186 -9.290
-7.910 -7.354 -0.556
-17.675 -8.157 -9.519
-17.539 -8.180 -9.360
-14.897 -7.354 -7.566
-7.911 -7.354 -0.557
-17.675 -8.157 -9.519
-17.675 -8.157 -9.519
-7.943 -7.366 -0.578
-17.682 -8.155 -9.528
-17.682 -8.155 -9.528
-17.682 -8.155 -9.528
-17.682 -8.155 -9.528
-6.303 -8.155 1.855
-6.969 -8.331 1.358
-14.620 -7.325 -7.318
-17.682 -8.155 -9.528
-16.890 -7.808 -9.123
-17.682 -8.155 -9.528
-7.912 -7.353 -0.559
-14.337 -7.430 -6.933
-6.275 -8.149 1.877
-6.275 -8.149 1.877
-16.484 -7.805 -8.721
-14.620 -7.325 -7.318
-7.093 -10.029 2.931
-17.683 -8.155 -9.528
-14.620 -7.325 -7.318
-14.620 -7.325 -7.318
-14.904 -7.352 -7.576
-16.891 -7.808 -9.124
-16.484 -7.805 -8.721
-16.438 -7.808 -8.673
-7.902 -7.353 -0.549
-17.465 -8.187 -9.280
-16.524 -7.786 -8.781
-7.698 -9.769 2.071
-16.469 -7.807 -8.705
-14.892 -7.356 -7.560
-16.469 -7.807 -8.705
-7.697 -9.769 2.073
-7.972 -7.351 -0.621
-17.665 -8.158 -9.508
-14.608 -7.329 -7.302
-6.270 -8.150 1.884
-17.665 -8.158 -9.508
-7.905 -7.353 -0.552
-16.523 -7.786 -8.780
-17.665 -8.158 -9.508
-17.665 -8.158 -9.508
-7.546 -9.292 1.744
-7.697 -9.770 2.074
-7.237 -9.472 2.230
-7.985 -7.346 -0.639
-14.615 -7.328 -7.310
-7.920 -7.350 -0.571
-17.672 -8.155 -9.518
-17.672 -8.155 -9.518
-17.672 -8.155 -9.518
-7.698 -9.770 2.072
-17.898 -8.145 -9.754
-17.271 -8.181 -9.091
-16.488 -7.803 -8.728
-14.620 -7.327 -7.317
-16.896 -7.806 -9.131
-14.620 -7.327 -7.316
-14.620 -7.327 -7.316
-17.482 -8.183 -9.300
-14.620 -7.327 -7.316
-14.905 -7.353 -7.576
-17.546 -8.177 -9.371
-17.910 -8.144 -9.767
-7.589 -9.230 1.634
-17.683 -8.154 -9.530
-7.707 -9.770 2.064
-14.620 -7.327 -7.316
-17.910 -8.144 -9.767
-17.547 -8.177 -9.371
-7.957 -7.362 -0.595
-17.556 -8.176 -9.382
-14.628 -7.325 -7.327
-7.591 -9.229 1.630
-16.546 -7.782 -8.807
-17.553 -8.176 -9.378
-17.553 -8.176 -9.378
-16.493 -7.802 -8.734
-17.691 -8.153 -9.539
-14.629 -7.325 -7.327
-17.554 -8.176 -9.380
-17.554 -8.176 -9.380
-17.554 -8.176 -9.380
-14.913 -7.351 -7.585
-6.276 -8.149 1.877
-7.079 -9.647 2.567
-14.627 -7.325 -7.326
-14.627 -7.325 -7.326
-17.690 -8.153 -9.539
-7.926 -7.349 -0.577
-7.577 -9.285 1.706
-17.690 -8.153 -9.539
-6.268 -8.153 1.888
-17.690 -8.153 -9.539
-17.690 -8.153 -9.539
-17.917 -8.143 -9.775
-7.926 -7.349 -0.577
-7.926 -7.349 -0.577
-7.926 -7.349 -0.577
-7.577 -9.285 1.706
-9.512 -9.298 -0.221
-17.690 -8.153 -9.539
-16.899 -7.806 -9.135
-14.627 -7.325 -7.326
-7.715 -9.766 2.051
-17.691 -8.153 -9.539
-7.896 -7.029 -0.879
-7.113 -7.557 0.445
-6.268 -8.152 1.887
-7.709 -9.770 2.062
-17.833 -8.147 -9.687
-7.712 -9.770 2.058
-17.916 -8.143 -9.775
-17.489 -8.182 -9.309
-17.691 -8.153 -9.539
-17.554 -8.176 -9.380
-7.926 -7.349 -0.577
-7.895 -7.029 -0.879
-7.993 -7.763 -0.228
-17.917 -8.143 -9.775
-7.708 -9.770 2.063
-17.691 -8.153 -9.539
-17.278 -8.180 -9.099
-8.005 -7.360 -0.645
-6.984 -8.320 1.332
-16.499 -7.801 -8.741
-6.269 -8.152 1.886
-16.550 -7.780 -8.813
-17.697 -8.151 -9.547
-17.697 -8.151 -9.547
-17.697 -8.151 -9.547
-8.022 -7.334 -0.689
-17.697 -8.151 -9.547
-14.633 -7.323 -7.334
-17.697 -8.151 -9.547
-16.498 -7.801 -8.740
-17.558 -8.174 -9.386
-17.558 -8.174 -9.386
-7.955 -7.337 -0.619
-17.923 -8.141 -9.783
-4.237 -6.671 2.437
-7.955 -7.336 -0.619
-8.029 -7.747 -0.280
-14.632 -7.322 -7.333
-17.558 -8.174 -9.386
-7.709 -9.770 2.062
-17.922 -8.141 -9.783
-8.005 -7.360 -0.645
-17.561 -8.174 -9.388
-8.022 -7.334 -0.689
-17.697 -8.151 -9.547
-7.839 -9.789 1.950
-17.558 -8.174 -9.386
-7.574 -9.273 1.698
-16.499 -7.801 -8.741
-7.956 -7.337 -0.619
-16.554 -7.780 -8.817
-5.436 -7.310 1.877
-18.354 -8.029 -10.327
-17.701 -8.150 -9.552
-14.635 -7.324 -7.335
-6.275 -8.150 1.877
-17.563 -8.174 -9.391
-7.947 -7.008 -0.951
-14.634 -7.323 -7.334
-16.506 -7.800 -8.748
-17.701 -8.150 -9.552
-6.267 -8.153 1.889
-7.078 -9.971 2.890
-17.562 -8.174 -9.390
-7.259 -9.456 2.192
-17.701 -8.150 -9.552
-7.900 -9.408 1.507
-4.237 -6.670 2.437
-17.700 -8.150 -9.551
-7.082 -10.044 2.955
-17.700 -8.150 -9.551
-7.955 -7.336 -0.619
-7.955 -7.336 -0.619
-17.564 -8.174 -9.392
-6.988 -8.327 1.335
-7.223 -7.538 0.316
-7.040 -8.326 1.283
-17.700 -8.150 -9.551
-17.700 -8.150 -9.551
-4.872 -8.328 3.449
-8.022 -7.334 -0.688
-16.561 -7.780 -8.824
-17.700 -8.150 -9.551
-14.634 -7.324 -7.334
-17.700 -8.150 -9.551
-16.506 -7.800 -8.748
-16.914 -7.804 -9.151
-6.267 -8.152 1.888
-7.955 -7.336 -0.618
-7.947 -7.008 -0.951
-16.505 -7.801 -8.748
-16.557 -7.780 -8.821
-7.955 -7.337 -0.618
-6.734 -9.675 2.940
-16.506 -7.801 -8.749
-17.700 -8.150 -9.551
-7.947 -7.009 -0.950
-16.913 -7.804 -9.151
-7.153 -7.540 0.389
-17.498 -8.180 -9.320
-7.850 -9.790 1.940
-7.955 -7.337 -0.619
-17.564 -8.174 -9.392
-17.700 -8.150 -9.551
-17.700 -8.150 -9.551
-14.635 -7.324 -7.334
-8.030 -7.747 -0.281
-17.562 -8.174 -9.390
-7.258 -9.456 2.193
-8.030 -7.747 -0.281
-6.314 -8.152 1.841
-8.024 -7.334 -0.690
-7.156 -7.540 0.386
-17.563 -8.174 -9.391
-17.701 -8.150 -9.551
-8.005 -7.360 -0.644
-7.547 -9.490 1.938
-7.940 -7.337 -0.604
-17.564 -8.174 -9.392
-5.435 -7.311 1.878
-8.163 -7.331 -0.832
-7.243 -7.529 0.287
-17.568 -8.172 -9.397
-5.268 -7.306 2.041
-5.268 -7.306 2.041
-8.163 -7.331 -0.832
-7.958 -7.331 -0.627
-17.706 -8.149 -9.559
-7.973 -7.330 -0.643
-14.641 -7.323 -7.341
-6.276 -8.150 1.877
-14.640 -7.322 -7.341
-8.023 -7.356 -0.667
-16.509 -7.800 -8.752
-6.547 -8.175 1.630
-17.930 -8.139 -9.792
-8.021 -7.355 -0.666
-6.824 -10.116 3.285
-6.995 -8.325 1.326
-7.969 -7.332 -0.637
-5.264 -7.307 2.045
-7.969 -7.332 -0.637
-8.042 -7.742 -0.298
-16.563 -7.779 -8.827
-4.634 -7.790 3.159
-5.442 -7.310 1.871
-5.430 -8.291 2.855
-17.566 -8.173 -9.395
-16.563 -7.779 -8.827
-7.840 -9.789 1.949
-5.432 -7.304 1.875
-16.443 -7.807 -8.679
-7.905 -7.353 -0.552
-14.599 -7.326 -7.296
-6.963 -8.317 1.351
-16.473 -7.806 -8.710
-16.526 -7.786 -8.784
-5.235 -7.890 2.653
-7.041 -8.313 1.268
-7.699 -9.769 2.070
-5.271 -7.305 2.037
-17.687 -8.152 -9.536
-17.687 -8.152 -9.536
-14.630 -7.323 -7.330
-16.487 -7.803 -8.727
-8.030 -7.352 -0.678
-6.994 -8.321 1.323
-17.687 -8.152 -9.536
-17.687 -8.152 -9.536
-17.687 -8.152 -9.536
-17.547 -8.176 -9.373
-8.030 -7.352 -0.678
-7.955 -7.331 -0.624
-17.687 -8.152 -9.536
-7.918 -7.022 -0.909
-5.435 -8.288 2.847
-14.630 -7.323 -7.330
-6.997 -8.315 1.315
-17.687 -8.152 -9.536
-17.687 -8.152 -9.536
-6.266 -8.153 1.889
-7.955 -7.331 -0.624
-7.955 -7.331 -0.624
-17.549 -8.176 -9.375
-5.435 -8.289 2.847
-5.358 -8.244 2.882
-4.553 -7.783 3.233
-17.687 -8.152 -9.536
-6.267 -8.153 1.889
-5.435 -8.289 2.847
-4.479 -6.530 2.053
-6.303 -8.155 1.855
-14.629 -7.322 -7.330
-14.629 -7.322 -7.330
-7.931 -7.020 -0.923
-7.171 -7.525 0.355
-8.031 -7.353 -0.678
-16.486 -7.803 -8.726
-7.969 -7.331 -0.639
-4.236 -6.670 2.438
-16.540 -7.782 -8.801
-17.687 -8.152 -9.536
-5.449 -7.308 1.862
-7.931 -7.020 -0.923
-14.629 -7.322 -7.329
-4.346 -6.676 2.333
-7.585 -9.335 1.747
-4.237 -6.670 2.436
-14.629 -7.322 -7.329
-6.997 -8.314 1.314
-17.687 -8.152 -9.536
-9.516 -9.297 -0.227
-4.878 -7.770 2.895
-7.173 -7.525 0.354
-7.243 -7.523 0.281
-4.237 -6.669 2.436
-4.552 -7.783 3.234
-4.237 -6.669 2.436
-5.455 -7.307 1.854
-7.958 -7.332 -0.627
-7.920 -7.025 -0.908
-5.277 -7.303 2.029
-17.687 -8.152 -9.536
-16.487 -7.803 -8.727
-6.267 -8.152 1.888
-5.271 -7.305 2.037
-8.030 -7.352 -0.678
-14.630 -7.323 -7.330
-17.687 -8.152 -9.536
-17.687 -8.152 -9.536
-7.839 -9.789 1.951
-14.913 -7.349 -7.589
-4.795 -7.781 2.989
-5.018 -8.094 3.069
-8.037 -7.328 -0.709
-16.894 -7.806 -9.129
-16.894 -7.806 -9.129
-4.236 -6.670 2.438
-7.944 -7.043 -0.913
-8.049 -7.324 -0.726
-5.435 -8.288 2.847
-17.694 -8.149 -9.546
-5.049 -8.242 3.188
-5.234 -7.577 2.342
-4.236 -6.670 2.437
-17.694 -8.149 -9.546
-5.272 -7.305 2.036
-7.966 -6.999 -0.980
-7.983 -7.326 -0.657
-7.969 -7.327 -0.642
-7.831 -9.789 1.958
-7.983 -7.326 -0.657
-4.322 -7.692 3.372
-4.236 -6.670 2.438
-17.694 -8.149 -9.546
-5.276 -7.305 2.032
-8.038 -6.979 -1.072
-8.038 -6.979 -1.072
-4.480 -6.529 2.051
-4.632 -7.791 3.161
-4.554 -7.784 3.233
-17.695 -8.149 -9.546
-8.038 -6.979 -1.072
-4.480 -6.530 2.052
-8.050 -7.323 -0.727
-17.694 -8.149 -9.546
-4.797 -7.781 2.987
-17.695 -8.149 -9.546
-17.695 -8.149 -9.546
-7.074 -9.660 2.585
-5.037 -8.239 3.199
-17.694 -8.149 -9.546
-4.161 -6.526 2.366
-4.236 -6.670 2.438
-5.435 -8.288 2.847
-6.997 -8.314 1.314
-4.480 -6.530 2.052
-7.979 -6.997 -0.994
-4.480 -6.530 2.052
-4.237 -6.670 2.436
-17.694 -8.149 -9.546
-5.358 -8.244 2.881
-7.567 -9.273 1.704
-4.236 -6.670 2.437
-4.659 -7.474 2.805
-7.969 -7.327 -0.642
-8.050 -7.323 -0.727
-8.038 -6.979 -1.072
-6.270 -8.153 1.886
-4.346 -6.676 2.333
-4.463 -6.936 2.476
-5.450 -7.308 1.861
-5.450 -7.308 1.861
-4.480 -6.529 2.051
-4.659 -7.474 2.805
-8.038 -6.979 -1.072
-17.694 -8.149 -9.546
-5.272 -7.305 2.036
-4.237 -6.670 2.437
-7.101 -9.826 2.720
-6.267 -8.153 1.888
-7.983 -7.326 -0.657
-4.553 -7.784 3.233
-4.978 -8.316 3.332
-4.797 -7.781 2.987
-5.358 -8.244 2.881
-4.797 -7.781 2.987
-4.236 -6.670 2.438
-4.875 -8.328 3.446
-8.030 -7.008 -1.035
-4.554 -7.784 3.233
-7.969 -7.327 -0.642
-7.969 -7.327 -0.642
-4.236 -6.670 2.438
-5.018 -8.094 3.069
-5.018 -8.094 3.069
-7.979 -6.997 -0.994
-17.694 -8.149 -9.546
-4.797 -7.781 2.987
-8.043 -7.348 -0.696
-7.002 -8.321 1.316
-5.435 -8.288 2.847
-4.236 -6.670 2.438
-4.480 -6.530 2.052
-6.304 -8.155 1.854
-14.637 -7.322 -7.338
-4.553 -7.784 3.233
-4.236 -6.670 2.437
-7.969 -7.327 -0.642
-4.479 -6.529 2.052
-4.553 -7.784 3.234
-4.797 -7.781 2.987
-4.553 -7.784 3.234
-8.036 -6.980 -1.070
-4.237 -6.670 2.436
-17.694 -8.149 -9.546
-4.797 -7.781 2.987
-4.322 -7.692 3.372
-8.037 -6.979 -1.071
-4.978 -8.316 3.332
-5.272 -7.305 2.037
-6.547 -8.176 1.631
-5.049 -8.241 3.187
-7.567 -9.273 1.704
-5.272 -7.305 2.037
-5.435 -8.288 2.847
-8.030 -7.008 -1.035
-8.037 -6.979 -1.071
-4.797 -7.781 2.987
-4.346 -6.676 2.333
-7.180 -7.529 0.351
-17.694 -8.149 -9.546
-8.030 -7.008 -1.035
-4.659 -7.474 2.805
-6.268 -8.153 1.888
-6.997 -8.314 1.314
-17.694 -8.149 -9.546
-7.978 -6.998 -0.993
-7.968 -7.327 -0.642
-4.553 -7.784 3.233
-7.968 -7.327 -0.642
-4.797 -7.781 2.987
-7.074 -9.661 2.586
-17.695 -8.149 -9.547
-17.695 -8.149 -9.547
-4.797 -7.781 2.987
-7.968 -7.327 -0.642
-17.694 -8.149 -9.546
-4.797 -7.781 2.987
-7.978 -6.998 -0.993
-4.236 -6.670 2.437
-8.080 -7.336 -0.743
-4.236 -6.670 2.438
-7.983 -7.326 -0.657
-6.547 -8.175 1.630
-4.322 -7.692 3.372
-4.450 -8.322 3.865
-7.074 -9.662 2.587
-4.659 -7.474 2.805
-7.983 -7.327 -0.657
-7.983 -7.326 -0.657
-6.997 -8.314 1.314
-4.226 -6.673 2.450
-6.984 -8.346 1.358
-4.237 -6.670 2.436
-7.579 -9.231 1.644
-5.258 -7.301 2.046
-7.299 -7.560 0.262
-4.237 -6.669 2.435
-7.975 -7.331 -0.645
-7.921 -7.023 -0.910
-7.576 -9.314 1.735
-7.012 -9.580 2.566
-4.237 -6.669 2.435
-7.921 -7.023 -0.910
-7.921 -7.023 -0.910
-4.319 -7.691 3.374
-16.488 -7.803 -8.728
-8.249 -7.223 -1.035
-7.175 -7.523 0.350
-4.237 -6.670 2.436
-4.323 -6.932 2.612
-4.492 -7.313 2.824
-8.046 -7.728 -0.316
-4.796 -7.781 2.988
-4.237 -6.670 2.437
-6.277 -8.150 1.876
-7.835 -9.800 1.963
-7.921 -7.022 -0.913
-5.436 -8.288 2.846
-5.275 -7.305 2.033
-4.978 -8.317 3.333
-7.934 -7.020 -0.927
-7.921 -7.022 -0.913
-4.471 -8.149 3.669
-4.246 -6.506 2.262
-4.978 -8.317 3.332
-7.608 -9.341 1.730
-17.687 -8.152 -9.536
-4.236 -6.670 2.438
-7.985 -7.030 -0.967
-4.237 -6.670 2.437
-4.346 -6.676 2.333
-4.346 -6.676 2.333
-5.939 -7.466 1.530
-5.940 -7.479 1.542
-5.940 -7.477 1.540
-7.841 -9.700 1.860
-7.729 -9.645 1.915
-7.729 -9.645 1.916
-5.922 -7.470 1.551
-5.922 -7.476 1.558
-7.729 -9.645 1.916
-7.843 -9.688 1.846
-7.729 -9.645 1.915
-5.922 -7.476 1.558
-5.922 -7.477 1.558
-7.729 -9.645 1.916
-5.900 -7.478 1.581
-4.678 -7.204 2.528
-7.730 -9.645 1.914
-4.678 -7.204 2.528
-5.894 -7.465 1.574
-5.894 -7.482 1.591
-7.752 -9.637 1.884
-7.844 -9.688 1.845
-4.678 -7.204 2.528
-5.894 -7.482 1.591
-5.919 -7.478 1.562
-5.894 -7.480 1.588
-5.894 -7.480 1.588
-5.919 -7.478 1.562
-4.457 -6.875 2.421
-5.093 -6.616 1.525
-5.893 -7.472 1.582
-5.894 -7.480 1.589
-7.730 -9.645 1.914
-5.093 -6.616 1.525
-5.918 -7.478 1.563
-4.642 -6.839 2.200
-4.706 -7.196 2.492
-4.706 -7.196 2.492
-7.730 -9.645 1.914
-5.919 -7.478 1.562
-5.919 -7.478 1.562
-5.093 -6.615 1.525
-5.893 -7.484 1.593
-4.678 -7.204 2.528
-4.973 -7.169 2.199
-5.894 -7.480 1.588
-7.730 -9.645 1.914
-5.093 -6.614 1.524
-7.730 -9.645 1.914
-5.919 -7.478 1.562
-5.919 -7.478 1.562
-4.678 -7.204 2.528
-7.825 -9.688 1.863
-5.283 -6.734 1.456
-7.842 -9.688 1.847
-5.918 -7.479 1.564
-5.918 -7.479 1.564
-4.636 -6.827 2.194
-4.963 -7.169 2.208
-5.918 -7.479 1.564
-4.963 -7.169 2.208
-5.918 -7.478 1.563
-4.704 -7.196 2.495
-5.918 -7.479 1.564
-5.918 -7.479 1.564
-4.636 -6.828 2.195
-5.091 -6.618 1.529
-4.701 -7.196 2.498
-4.670 -7.203 2.536
-5.918 -7.479 1.564
-7.710 -9.644 1.932
-5.092 -6.618 1.529
-5.918 -7.479 1.564
-4.670 -7.203 2.536
-4.670 -7.203 2.536
-4.704 -7.196 2.494
-5.918 -7.479 1.564
-4.670 -7.203 2.536
-5.884 -7.484 1.603
-4.821 -7.035 2.216
-5.918 -7.479 1.564
-4.963 -7.169 2.208
-5.918 -7.479 1.564
-5.918 -7.479 1.564
-5.092 -6.618 1.529
-5.918 -7.479 1.564
-5.893 -7.470 1.581
-5.891 -7.479 1.590
-5.893 -7.484 1.594
-5.918 -7.479 1.564
-5.918 -7.479 1.564
-5.918 -7.479 1.564
-5.893 -7.481 1.591
-4.636 -6.828 2.195
-5.892 -7.480 1.591
-4.701 -7.196 2.498
-4.433 -6.491 2.062
-5.091 -6.619 1.530
-5.091 -6.618 1.529
-5.893 -7.480 1.590
-7.842 -9.688 1.847
-4.701 -7.196 2.498
-5.091 -6.618 1.529
-8.034 -9.852 1.820
-4.964 -7.169 2.207
-5.918 -7.479 1.564
-5.892 -7.483 1.594
-3.393 -6.504 3.113
-4.705 -7.196 2.494
-5.885 -7.484 1.603
-4.964 -7.169 2.208
-5.918 -7.479 1.564
-5.918 -7.479 1.564
-5.892 -7.480 1.590
-5.893 -7.448 1.558
-7.728 -9.645 1.916
-5.918 -7.479 1.564
-5.918 -7.479 1.564
-5.884 -7.484 1.603
-5.092 -6.618 1.528
-5.918 -7.479 1.564
-4.670 -7.203 2.536
-4.717 -7.011 2.298
-4.672 -7.173 2.504
-7.842 -9.688 1.847
-5.918 -7.479 1.564
-4.770 -7.196 2.428
-5.884 -7.484 1.603
-7.842 -9.688 1.847
-7.842 -9.688 1.847
-4.636 -6.827 2.194
-5.918 -7.479 1.564
-4.821 -7.035 2.216
-5.893 -7.481 1.591
-5.918 -7.479 1.564
-7.148 -8.276 1.130
-4.716 -7.012 2.299
-4.964 -7.169 2.207
-5.918 -7.479 1.564
-5.918 -7.479 1.564
-5.918 -7.479 1.564
-7.728 -9.645 1.916
-5.080 -6.955 1.878
-4.636 -6.829 2.196
-4.405 -6.492 2.091
-4.769 -7.196 2.429
-4.637 -6.827 2.193
-4.396 -7.015 2.621
-5.918 -7.479 1.564
-5.918 -7.479 1.564
-7.728 -9.645 1.916
-4.964 -7.169 2.208
-5.218 -7.008 1.793
-5.918 -7.479 1.564
-5.884 -7.484 1.603
-7.887 -9.904 2.020
-5.881 -7.484 1.605
-7.824 -9.688 1.865
-5.918 -7.479 1.564
-5.918 -7.479 1.564
-5.918 -7.479 1.564
-5.893 -7.476 1.586
-5.918 -7.479 1.564
-5.078 -6.948 1.872
-5.091 -6.617 1.528
-4.636 -6.827 2.194
-4.636 -6.828 2.195
-5.892 -7.481 1.591
-5.892 -7.481 1.591
-5.483 -7.282 1.802
-7.728 -9.645 1.916
-7.842 -9.688 1.847
-4.670 -7.203 2.536
-4.670 -7.203 2.536
-4.736 -6.989 2.255
-7.824 -9.688 1.865
-5.089 -6.607 1.520
-5.089 -6.606 1.519
-5.884 -7.485 1.603
-5.893 -7.481 1.591
-4.670 -7.203 2.536
-5.918 -7.479 1.564
-4.670 -7.203 2.536
-5.918 -7.479 1.564
-5.918 -7.479 1.564
-5.887 -7.394 1.511
-5.893 -7.472 1.582
-5.918 -7.480 1.565
-7.795 -9.689 1.894
-7.795 -9.689 1.894
-4.685 -7.204 2.521
-7.840 -9.700 1.860
-4.065 -6.044 1.981
-7.725 -9.652 1.927
-4.643 -6.837 2.197
-5.919 -7.477 1.561
-4.433 -6.491 2.062
-7.729 -9.645 1.915
-5.894 -7.479 1.587
-7.842 -9.688 1.846
-5.919 -7.476 1.560
-5.093 -6.610 1.520
-7.842 -9.688 1.846
-4.643 -6.836 2.196
-7.864 -9.681 1.817
-4.406 -6.492 2.090
-4.706 -7.196 2.493
-7.842 -9.688 1.846
-4.706 -7.196 2.493
-5.895 -7.479 1.587
-4.643 -6.836 2.196
-7.842 -9.688 1.846
-7.147 -8.276 1.132
-4.643 -6.837 2.196
-7.904 -9.758 1.853
-5.919 -7.477 1.561
-4.678 -7.204 2.528
-7.147 -8.276 1.132
-5.079 -6.949 1.873
-4.777 -7.197 2.422
-4.972 -7.169 2.200
-5.920 -7.477 1.560
-5.895 -7.462 1.571
-4.779 -7.197 2.421
-7.806 -9.696 1.889
-4.972 -7.169 2.200
-7.842 -9.688 1.847
-5.491 -7.282 1.795
-5.873 -7.486 1.615
-5.873 -7.486 1.615
-5.895 -7.479 1.587
-5.919 -7.477 1.561
-4.724 -7.012 2.292
-4.724 -7.012 2.292
-5.080 -6.946 1.869
-5.919 -7.477 1.561
-5.894 -7.483 1.592
-5.095 -6.939 1.847
-7.842 -9.688 1.847
-6.755 -8.289 1.537
-6.755 -8.290 1.537
-4.826 -7.038 2.214
-7.842 -9.688 1.847
-5.886 -7.482 1.599
-5.895 -7.479 1.587
-4.160 -7.129 2.972
-7.806 -9.696 1.889
-5.919 -7.477 1.561
-5.895 -7.475 1.583
-5.093 -6.610 1.520
-4.144 -6.945 2.803
-5.919 -7.477 1.561
-7.795 -9.688 1.893
-6.986 -8.243 1.260
-5.919 -7.477 1.561
-7.844 -9.687 1.843
-4.643 -6.836 2.196
-5.895 -7.479 1.587
-4.900 -7.023 2.127
-7.844 -9.687 1.843
-5.922 -7.603 1.683
-7.146 -8.276 1.132
-5.919 -7.477 1.560
-5.920 -7.478 1.561
-4.724 -7.012 2.292
-4.407 -6.493 2.090
-5.895 -7.479 1.587
-4.778 -7.197 2.421
-6.986 -8.243 1.260
-4.972 -7.170 2.200
-7.844 -9.687 1.843
-4.643 -6.836 2.196
-5.886 -7.482 1.599
-7.808 -9.695 1.888
-6.986 -8.243 1.260
-4.825 -7.038 2.214
-7.796 -9.688 1.892
-7.844 -9.687 1.843
-7.844 -9.687 1.843
-7.712 -9.644 1.931
-7.843 -9.688 1.845
-5.894 -7.479 1.587
-4.972 -7.170 2.201
-5.886 -7.482 1.599
-7.843 -9.688 1.845
-5.919 -7.477 1.560
-5.894 -7.479 1.587
-7.373 -8.332 0.961
-5.894 -7.473 1.582
-5.919 -7.477 1.560
-5.919 -7.477 1.560
-5.894 -7.479 1.587
-7.843 -9.687 1.845
-5.919 -7.477 1.561
-7.825 -9.687 1.862
-5.919 -7.477 1.561
-7.730 -9.645 1.914
-5.894 -7.478 1.587
-7.789 -9.695 1.906
-5.919 -7.477 1.560
-4.144 -6.945 2.803
-4.457 -6.872 2.418
-5.886 -7.482 1.599
-5.886 -7.482 1.599
-7.127 -8.273 1.149
-7.146 -8.276 1.133
-4.695 -6.600 1.909
-7.843 -9.687 1.844
-4.721 -7.012 2.295
-5.919 -7.477 1.560
-7.146 -8.276 1.133
-5.919 -7.477 1.560
-7.808 -9.695 1.888
-6.125 -7.874 1.752
-7.843 -9.688 1.845
-4.433 -6.491 2.062
-4.729 -6.606 1.881
-7.368 -8.331 0.966
-7.843 -9.687 1.845
-5.098 -6.946 1.852
-4.897 -7.022 2.128
-5.894 -7.479 1.587
-4.972 -7.170 2.201
-4.642 -6.837 2.197
-5.919 -7.477 1.561
-6.986 -8.243 1.260
-7.826 -9.687 1.861
-7.908 -9.753 1.845
-4.433 -6.491 2.062
-5.919 -7.477 1.561
-5.095 -6.939 1.847
-5.919 -7.477 1.561
-5.919 -7.477 1.561
-4.972 -7.170 2.201
-4.434 -6.491 2.061
-5.920 -7.477 1.560
-7.843 -9.688 1.845
-7.808 -9.695 1.888
-4.434 -6.491 2.061
-4.828 -7.038 2.212
-4.391 -6.487 2.100
-5.919 -7.477 1.560
-5.484 -7.281 1.801
-7.843 -9.688 1.845
-7.908 -9.753 1.845
-7.843 -9.688 1.845
-4.777 -7.197 2.423
-7.843 -9.688 1.845
-7.843 -9.688 1.845
-7.843 -9.688 1.845
-5.920 -7.477 1.560
-5.965 -7.479 1.517
-5.965 -7.479 1.517
-5.886 -7.482 1.599
-4.573 -6.991 2.422
-7.843 -9.688 1.845
-7.843 -9.688 1.845
-7.843 -9.688 1.845
-5.082 -6.639 1.560
-4.780 -7.166 2.389
-4.899 -7.022 2.127
-5.895 -7.479 1.587
-7.790 -9.695 1.905
-7.146 -8.276 1.132
-7.790 -9.695 1.905
-5.093 -6.610 1.519
-4.696 -6.600 1.908
-7.369 -8.332 0.965
-4.407 -6.493 2.090
-5.965 -7.479 1.518
-5.895 -7.479 1.587
-5.894 -7.467 1.576
-5.919 -7.477 1.560
-5.919 -7.477 1.560
-7.808 -9.695 1.888
-5.919 -7.477 1.560
-7.825 -9.687 1.863
-7.908 -9.753 1.845
-5.895 -7.474 1.582
-5.895 -7.479 1.587
-5.919 -7.477 1.560
-4.823 -7.035 2.214
-4.837 -7.019 2.186
-7.902 -9.759 1.857
-5.919 -7.477 1.561
-5.886 -7.482 1.599
-4.433 -6.491 2.062
-5.895 -7.479 1.587
-5.919 -7.477 1.560
-4.486 -6.494 2.012
-7.906 -9.754 1.847
-7.146 -8.276 1.132
-7.906 -9.757 1.851
-5.919 -7.477 1.560
-5.919 -7.477 1.560
-5.222 -7.010 1.791
-5.936 -7.587 1.654
-4.348 -7.071 2.727
-7.808 -9.695 1.888
-7.825 -9.687 1.863
-4.144 -6.985 2.843
-4.678 -7.204 2.528
-4.342 -7.131 2.792
-4.342 -7.131 2.792
-7.808 -9.695 1.888
-5.920 -7.477 1.560
-5.920 -7.477 1.560
-7.901 -9.761 1.860
-5.920 -7.477 1.560
-5.920 -7.477 1.560
-4.642 -6.836 2.196
-7.843 -9.688 1.845
-7.843 -9.688 1.845
-5.919 -7.477 1.561
-5.887 -7.465 1.581
-7.790 -9.695 1.905
-5.491 -7.282 1.795
-5.919 -7.477 1.560
-4.433 -6.491 2.062
-5.926 -7.585 1.662
-5.488 -7.281 1.797
-5.093 -6.611 1.520
-5.892 -7.488 1.600
-7.411 -8.337 0.929
-7.411 -8.337 0.929
-5.938 -7.480 1.545
-5.938 -7.480 1.545
-4.449 -6.499 2.054
-5.229 -7.008 1.783
-4.781 -7.196 2.418
-7.729 -9.645 1.915
-5.920 -7.477 1.560
-5.920 -7.477 1.560
-7.824 -9.687 1.864
-4.695 -6.599 1.908
-5.919 -7.477 1.561
-4.406 -6.493 2.090
-5.490 -7.282 1.796
-5.895 -7.478 1.587
-5.919 -7.477 1.561
-7.374 -8.332 0.961
-4.726 -6.606 1.884
-3.598 -6.525 2.929
-6.987 -8.243 1.259
-7.789 -9.695 1.907
-5.223 -7.009 1.789
-5.098 -6.946 1.852
-4.728 -6.606 1.882
-4.972 -7.169 2.200
-5.098 -6.946 1.851
-5.895 -7.479 1.586
-5.965 -7.479 1.517
-5.920 -7.477 1.560
-5.887 -7.482 1.598
-6.461 -6.818 0.361
-4.971 -7.170 2.201
-4.299 -5.151 0.856
-4.284 -5.143 0.862
-4.729 -6.606 1.881
-5.844 -7.460 1.619
-4.433 -6.491 2.061
-5.098 -6.943 1.848
-5.920 -7.477 1.560
-7.837 -9.690 1.854
-5.223 -7.009 1.789
-5.919 -7.477 1.560
-7.373 -8.332 0.961
-5.919 -7.477 1.560
-4.433 -6.491 2.061
-4.406 -6.492 2.090
-5.919 -7.477 1.560
-6.461 -6.818 0.361
-5.919 -7.477 1.560
-7.837 -9.690 1.854
-5.316 -6.736 1.423
-4.284 -5.143 0.862
-5.919 -7.477 1.561
-7.390 -9.068 1.680
-6.794 -8.298 1.507
-7.841 -9.688 1.847
-4.276 -5.139 0.866
-7.904 -9.755 1.851
-3.464 -6.161 2.701
-8.256 -10.156 1.899
-4.971 -7.170 2.201
-4.406 -6.492 2.090
-7.905 -9.754 1.848
-5.919 -7.477 1.560
-5.919 -7.477 1.560
-7.824 -9.688 1.864
-5.894 -7.478 1.587
-5.894 -7.478 1.587
-7.900 -9.762 1.861
-8.284 -10.165 1.879
-4.783 -7.166 2.386
-4.783 -7.166 2.386
-7.372 -8.332 0.963
-5.919 -7.477 1.560
-5.965 -7.479 1.517
-7.790 -9.485 1.698
-4.724 -7.012 2.292
-7.824 -9.687 1.863
-5.223 -7.009 1.789
-5.223 -7.009 1.789
-5.919 -7.477 1.561
-5.919 -7.477 1.561
-5.919 -7.477 1.561
-4.724 -7.012 2.292
-6.071 -7.866 1.796
-4.643 -6.836 2.195
-5.487 -7.282 1.799
-4.724 -7.012 2.292
-5.919 -7.477 1.561
-5.919 -7.477 1.561
-4.433 -6.491 2.062
-5.919 -7.477 1.561
-7.900 -9.762 1.861
-4.406 -6.492 2.090
-4.781 -7.166 2.388
-7.368 -8.331 0.966
-6.462 -6.816 0.359
-7.367 -8.331 0.966
-5.964 -7.479 1.518
-6.986 -8.243 1.260
-7.844 -9.687 1.843
-5.223 -7.009 1.789
-6.737 -8.286 1.551
-4.573 -6.992 2.422
-4.837 -7.019 2.186
-4.434 -6.491 2.062
-5.965 -7.479 1.517
-5.484 -7.281 1.801
-7.901 -9.761 1.860
-4.753 -6.606 1.856
-5.919 -7.477 1.560
-5.095 -6.939 1.847
-5.095 -6.939 1.847
-7.900 -9.758 1.858
-6.794 -8.298 1.507
-7.851 -10.667 2.811
-7.885 -9.795 1.912
-7.885 -9.795 1.913
-7.885 -9.796 1.913
-7.885 -9.795 1.912
-8.063 -10.679 2.612
-8.063 -10.679 2.612
-7.778 -10.647 2.862
-7.815 -9.761 1.948
-7.884 -9.789 1.907
-7.815 -9.761 1.948
-7.884 -9.789 1.907
-7.884 -9.789 1.907
-8.149 -10.684 2.532
-7.884 -9.789 1.907
-7.884 -9.789 1.907
-7.963 -9.829 1.867
-7.884 -9.789 1.907
-7.788 -10.602 2.810
-8.063 -10.679 2.612
-7.885 -9.789 1.907
-7.384 -8.523 1.139
-7.788 -10.602 2.810
-8.063 -10.679 2.612
-8.063 -10.679 2.612
-7.885 -9.789 1.907
-6.092 -8.360 2.270
-7.815 -9.761 1.948
-7.815 -9.761 1.948
-7.788 -10.602 2.810
-7.884 -9.789 1.907
-7.884 -9.789 1.907
-7.815 -9.761 1.948
-8.063 -10.679 2.612
-8.063 -10.679 2.612
-7.885 -9.789 1.907
-8.063 -10.679 2.612
-7.885 -9.789 1.907
-7.709 -9.844 2.137
-7.757 -9.851 2.096
-7.757 -9.851 2.096
-7.815 -9.761 1.948
-8.063 -10.679 2.612
-7.885 -9.789 1.907
-7.384 -8.523 1.139
-7.384 -8.523 1.139
-7.384 -8.523 1.139
-7.752 -9.851 2.101
-6.093 -8.360 2.269
-7.884 -9.789 1.907
-7.884 -9.789 1.907
-7.884 -9.789 1.907
-7.384 -8.523 1.139
-7.384 -8.523 1.139
-7.752 -9.850 2.099
-7.752 -9.851 2.101
-7.884 -9.789 1.907
-8.149 -10.684 2.532
-8.149 -10.684 2.532
-7.884 -9.789 1.907
-7.815 -9.761 1.948
-8.063 -10.679 2.612
-8.063 -10.679 2.612
-8.149 -10.684 2.531
-7.885 -9.789 1.907
-7.709 -9.844 2.137
-7.384 -8.523 1.139
-7.778 -10.647 2.862
-7.753 -9.851 2.101
-7.884 -9.789 1.907
-8.063 -10.679 2.612
-8.063 -10.679 2.612
-8.063 -10.679 2.612
-7.709 -9.844 2.137
-7.885 -9.789 1.907
-6.760 -9.283 2.524
-6.090 -8.361 2.273
-7.883 -9.789 1.908
-7.883 -9.789 1.908
-7.755 -9.850 2.098
-8.145 -10.684 2.536
-7.218 -8.510 1.292
-6.330 -9.753 3.426
-7.218 -8.510 1.292
-7.883 -9.788 1.907
-7.883 -9.788 1.907
-7.384 -8.523 1.139
-7.356 -8.521 1.164
-7.882 -9.788 1.908
-7.882 -9.788 1.908
-7.383 -8.523 1.140
-5.996 -7.828 1.834
-7.882 -9.788 1.908
-7.882 -9.788 1.908
-7.882 -9.788 1.908
-7.962 -9.828 1.869
-7.882 -9.788 1.908
-7.707 -9.844 2.139
-7.882 -9.788 1.908
-7.707 -9.844 2.139
-7.962 -9.828 1.868
-6.328 -9.752 3.427
-7.383 -8.523 1.140
-7.383 -8.523 1.140
-6.478 -9.781 3.306
-8.143 -10.684 2.537
-7.882 -9.788 1.908
-7.882 -9.788 1.908
-8.059 -10.679 2.616
-7.883 -9.788 1.907
-7.883 -9.788 1.907
-6.330 -9.753 3.425
-8.059 -10.679 2.616
-7.384 -8.523 1.139
-6.091 -8.359 2.270
-7.360 -8.517 1.156
-7.888 -9.796 1.910
-7.265 -8.517 1.253
-7.962 -9.833 1.874
-7.218 -8.511 1.294
-6.353 -9.760 3.410
-7.887 -9.796 1.911
-7.712 -9.851 2.141
-7.961 -9.833 1.874
-8.070 -10.680 2.606
-7.760 -9.852 2.094
-8.153 -10.684 2.527
-7.712 -9.845 2.135
-6.310 -9.190 2.883
-7.965 -9.829 1.866
-7.887 -9.790 1.905
-8.070 -10.679 2.606
-8.070 -10.680 2.606
-6.703 -9.299 2.597
-6.153 -8.367 2.215
-6.349 -9.754 3.408
-6.349 -9.754 3.408
-7.887 -9.790 1.905
-8.070 -10.679 2.606
-7.385 -8.523 1.138
-8.070 -10.679 2.606
-7.887 -9.790 1.905
-6.335 -9.753 3.421
-7.707 -9.845 2.141
-7.849 -10.618 2.765
-7.887 -9.790 1.905
-8.070 -10.679 2.606
-7.887 -9.790 1.905
-7.712 -9.845 2.135
-7.887 -9.790 1.905
-6.094 -8.360 2.268
-7.887 -9.790 1.905
-7.887 -9.790 1.905
-6.505 -9.807 3.304
-8.070 -10.679 2.606
-7.755 -9.852 2.099
-7.354 -8.529 1.174
-7.707 -9.845 2.141
-7.755 -9.852 2.099
-7.964 -9.829 1.866
-7.848 -10.617 2.765
-7.965 -9.829 1.866
-7.385 -8.523 1.138
-7.887 -9.790 1.905
-7.887 -9.790 1.905
-7.385 -8.523 1.138
-6.350 -9.753 3.405
-7.707 -9.845 2.140
-7.965 -9.829 1.866
-7.265 -8.516 1.252
-6.350 -9.753 3.405
-7.887 -9.790 1.905
-7.887 -9.790 1.905
-7.788 -9.876 2.090
-7.760 -9.852 2.094
-7.887 -9.790 1.905
-7.712 -9.845 2.135
-6.769 -9.286 2.518
-7.965 -9.829 1.866