-7.118 -6.536 -0.588
-5.423 -5.679 0.255
-6.901 -6.509 -0.401
-7.122 -6.536 -0.592
-6.095 -5.733 -0.359
-7.104 -6.611 -0.503
-7.067 -6.370 -0.698
-7.067 -6.370 -0.698
-7.046 -6.517 -0.532
-9.084 -3.497 -5.593
-7.069 -6.369 -0.701
-7.069 -6.369 -0.701
-7.105 -6.611 -0.504
-10.185 -1.320 -8.872
-9.734 -1.517 -8.225
-7.210 -6.415 -0.796
-7.210 -6.415 -0.796
-5.249 -5.308 0.060
-7.008 -6.512 -0.502
-6.095 -5.733 -0.360
-6.903 -6.509 -0.403
-5.102 -5.841 0.742
-7.105 -6.611 -0.504
-9.734 -1.517 -8.225
-7.004 -6.625 -0.390
-8.943 -2.597 -6.354
-10.093 -1.354 -8.746
-10.093 -1.354 -8.746
-7.496 -5.504 -1.991
-5.546 -5.683 0.138
-7.211 -6.414 -0.797
-6.903 -6.509 -0.403
-7.163 -6.646 -0.527
-5.102 -5.841 0.741
-6.456 -6.096 -0.367
-6.187 -7.010 0.816
-10.186 -1.320 -8.873
-6.428 -6.108 -0.326
-7.008 -6.512 -0.502
-7.008 -6.512 -0.502
-7.005 -6.625 -0.391
-7.005 -6.625 -0.391
-7.005 -6.625 -0.391
-6.086 -6.797 0.702
-5.102 -5.841 0.742
-7.008 -6.512 -0.502
-6.086 -6.797 0.702
-6.086 -6.797 0.702
-6.483 -6.884 0.402
-5.335 -5.755 0.417
-5.545 -5.683 0.138
-9.085 -3.497 -5.594
-7.048 -6.517 -0.535
-9.085 -3.497 -5.595
-7.070 -6.369 -0.702
-9.150 -3.381 -5.775
-7.163 -6.646 -0.527
-5.560 -5.689 0.130
-5.546 -5.683 0.138
-9.735 -1.517 -8.227
-7.211 -6.414 -0.797
-7.124 -6.535 -0.594
-7.048 -6.517 -0.535
-6.096 -5.733 -0.360
-9.427 -1.338 -8.105
-5.364 -5.697 0.332
-5.547 -5.683 0.137
-9.736 -1.516 -8.229
-7.587 -5.743 -1.842
-7.048 -6.940 -0.107
-8.482 -3.409 -5.085
-6.189 -7.010 0.814
-8.945 -2.591 -6.363
-10.187 -1.319 -8.876
-10.187 -1.319 -8.876
-6.097 -5.733 -0.362
-7.801 -4.539 -3.260
-7.164 -6.646 -0.528
-9.150 -3.380 -5.778
-10.096 -1.353 -8.750
-7.587 -5.743 -1.842
-7.011 -6.950 -0.059
-5.991 -6.591 0.595
-6.428 -6.109 -0.327
-5.338 -5.754 0.413
-5.104 -5.841 0.739
-7.070 -6.369 -0.702
-7.155 -6.376 -0.780
-7.070 -6.369 -0.702
-8.946 -2.589 -6.364
-6.610 -6.914 0.305
-5.274 -5.666 0.392
-6.429 -6.108 -0.327
-8.058 -3.855 -4.205
-7.011 -6.950 -0.060
-8.482 -3.409 -5.085
-5.547 -5.683 0.137
-7.012 -6.950 -0.060
-7.188 -6.559 -0.633
-6.771 -6.495 -0.282
-5.364 -5.697 0.333
-6.904 -6.509 -0.404
-5.274 -5.666 0.391
-5.547 -5.683 0.136
-8.946 -2.589 -6.364
-7.009 -6.512 -0.503
-9.736 -1.516 -8.230
-7.005 -6.625 -0.391
-10.281 -1.267 -9.022
-7.771 -4.487 -3.283
-7.048 -6.939 -0.107
-4.767 -5.180 0.414
-9.736 -1.516 -8.229
-7.125 -6.535 -0.595
-8.216 -5.007 -3.209
-10.188 -1.319 -8.876
-10.188 -1.319 -8.876
-10.188 -1.319 -8.876
-10.188 -1.319 -8.876
-5.219 -5.547 0.328
-5.219 -5.559 0.339
-5.268 -5.629 0.364
-5.251 -5.308 0.059
-7.188 -6.559 -0.633
-7.124 -6.535 -0.595
-6.188 -7.010 0.815
-7.049 -6.517 -0.536
-7.005 -6.625 -0.392
-7.009 -6.512 -0.503
-6.097 -5.733 -0.362
-6.456 -6.097 -0.366
-6.097 -5.733 -0.362
-8.113 -5.124 -2.988
-7.012 -6.950 -0.060
-7.107 -6.610 -0.506
-5.274 -5.666 0.392
-7.010 -6.512 -0.504
-9.326 -1.374 -7.967
-6.097 -5.733 -0.362
-9.429 -1.337 -8.107
-10.188 -1.319 -8.876
-6.207 -5.754 -0.451
-7.012 -6.950 -0.060
-8.945 -2.590 -6.364
-5.690 -5.791 0.099
-5.218 -5.547 0.329
-9.736 -1.516 -8.229
-9.086 -3.495 -5.596
-6.428 -6.109 -0.327
-5.427 -5.678 0.250
-7.497 -5.503 -1.991
-6.097 -5.733 -0.362
-8.946 -2.589 -6.364
-5.251 -5.308 0.059
-9.086 -3.495 -5.597
-4.448 -5.160 0.715
-5.270 -5.307 0.039
-10.195 -1.315 -8.888
-5.390 -5.693 0.303
-5.253 -5.537 0.284
-9.743 -1.512 -8.240
-7.190 -6.559 -0.634
-6.970 -6.627 -0.354
-8.114 -5.123 -2.990
-7.071 -6.369 -0.703
-5.722 -5.784 0.059
-10.195 -1.315 -8.888
-7.012 -6.950 -0.060
-7.127 -6.535 -0.598
-8.487 -3.405 -5.095
-6.189 -7.010 0.814
-5.252 -5.548 0.296
-8.952 -2.563 -6.397
-5.588 -5.680 0.093
-5.300 -5.662 0.361
-9.743 -1.512 -8.240
-5.988 -6.572 0.586
-6.122 -6.613 0.487
-5.251 -5.536 0.284
-5.251 -5.536 0.284
-9.088 -3.490 -5.605
-8.952 -2.562 -6.398
-7.012 -6.950 -0.060
-8.218 -5.006 -3.212
-7.012 -6.950 -0.060
-5.835 -7.034 1.201
-7.127 -6.535 -0.598
-6.429 -6.108 -0.328
-8.487 -3.405 -5.095
-9.089 -3.490 -5.605
-6.230 -5.749 -0.479
-7.166 -6.646 -0.530
-5.300 -5.662 0.361
-10.288 -1.263 -9.033
-4.398 -6.033 1.633
-7.497 -5.503 -1.992
-5.251 -5.536 0.284
-5.389 -5.693 0.303
-5.389 -5.693 0.303
-5.373 -5.755 0.379
-7.127 -6.535 -0.598
-6.089 -6.796 0.698
-7.588 -5.742 -1.843
-6.119 -6.614 0.491
-5.300 -5.662 0.361
-7.012 -6.950 -0.061
-5.300 -5.662 0.361
-5.269 -5.307 0.039
-8.952 -2.562 -6.398
-5.248 -5.864 0.619
-5.390 -5.693 0.303
-6.430 -6.108 -0.328
-5.300 -5.662 0.361
-7.772 -4.486 -3.285
-5.251 -5.548 0.296
-10.195 -1.315 -8.888
-5.205 -5.606 0.400
-6.190 -7.010 0.814
-7.588 -5.742 -1.844
-5.574 -5.674 0.100
-5.260 -5.608 0.350
-7.803 -4.538 -3.263
-4.694 -6.046 1.351
-6.116 -6.616 0.495
-8.049 -5.145 -2.902
-6.904 -6.509 -0.404
-6.904 -6.509 -0.404
-7.588 -5.742 -1.844
-8.049 -5.145 -2.902
-4.500 -5.429 0.929
-5.389 -5.693 0.304
-7.012 -6.950 -0.061
-7.012 -6.950 -0.061
-6.430 -6.108 -0.328
-6.189 -7.010 0.814
-9.435 -1.334 -8.117
-5.532 -5.684 0.151
-6.774 -6.495 -0.286
-5.372 -5.746 0.372
-7.072 -6.369 -0.703
-9.743 -1.512 -8.240
-7.012 -6.950 -0.060
-9.743 -1.512 -8.240
-8.952 -2.562 -6.398
-5.532 -5.684 0.152
-7.190 -6.559 -0.634
-5.835 -7.034 1.201
-9.079 -3.505 -5.580
-5.087 -5.842 0.758
-5.267 -5.667 0.399
-7.010 -6.951 -0.058
-4.831 -5.191 0.362
-8.946 -2.589 -6.364
-7.695 -5.281 -2.419
-5.215 -5.685 0.469
-5.690 -5.791 0.099
-5.203 -5.605 0.401
-6.120 -5.728 -0.390
-7.013 -6.512 -0.507
-6.430 -6.108 -0.328
-6.430 -6.108 -0.328
-6.904 -6.509 -0.404
-5.300 -5.662 0.361
-8.049 -5.145 -2.902
-8.049 -5.145 -2.902
-9.744 -1.512 -8.240
-9.744 -1.512 -8.240
-7.588 -5.742 -1.844
-10.288 -1.263 -9.033
-8.049 -5.145 -2.902
-7.033 -6.377 -0.657
-6.799 -7.049 0.244
-5.300 -5.662 0.361
-5.390 -5.693 0.303
-4.860 -5.188 0.329
-5.300 -5.662 0.361
-8.952 -2.562 -6.398
-5.390 -5.693 0.303
-5.390 -5.693 0.303
-5.242 -5.681 0.439
-5.242 -5.681 0.439
-8.952 -2.562 -6.398
-5.574 -5.674 0.101
-7.655 -5.264 -2.389
-5.389 -5.693 0.303
-5.989 -6.572 0.586
-5.611 -5.724 0.114
-5.203 -5.605 0.401
-9.743 -1.512 -8.240
-5.391 -5.693 0.303
-5.989 -6.572 0.586
-5.390 -5.693 0.303
-5.722 -5.784 0.059
-5.251 -5.548 0.296
-5.989 -6.572 0.585
-5.588 -5.680 0.092
-7.497 -5.503 -1.992
-5.389 -5.693 0.304
-5.389 -5.693 0.304
-5.300 -5.662 0.361
-5.300 -5.662 0.361
-4.470 -5.429 0.958
-9.743 -1.512 -8.240
-4.861 -5.187 0.328
-5.301 -5.662 0.360
-9.832 -1.461 -8.381
-5.252 -5.548 0.296
-7.680 -4.123 -3.560
-8.049 -5.145 -2.902
-7.012 -6.950 -0.060
-5.588 -5.680 0.092
-7.013 -6.950 -0.061
-5.373 -5.755 0.379
-9.584 -1.551 -8.042
-9.584 -1.551 -8.042
-5.301 -5.662 0.360
-5.391 -5.693 0.302
-8.794 -3.713 -5.083
-4.448 -5.160 0.716
-8.218 -5.006 -3.212
-5.588 -5.680 0.093
-7.497 -5.503 -1.992
-5.204 -5.606 0.401
-8.218 -5.006 -3.212
-4.448 -5.160 0.715
-7.588 -5.742 -1.844
-9.673 -1.499 -8.183
-5.390 -5.693 0.303
-5.589 -5.681 0.092
-5.242 -5.681 0.438
-6.800 -7.049 0.243
-6.430 -6.108 -0.328
-5.389 -5.693 0.303
-6.430 -6.108 -0.328
-6.800 -7.049 0.243
-7.244 -5.446 -1.803
-6.970 -6.627 -0.354
-7.012 -6.950 -0.061
-4.645 -5.437 0.792
-5.390 -5.693 0.303
-9.584 -1.551 -8.042
-5.242 -5.681 0.438
-6.613 -6.914 0.303
-5.301 -5.662 0.360
-9.117 -3.318 -5.806
-7.127 -6.535 -0.598
-10.195 -1.315 -8.888
-6.429 -6.109 -0.328
-8.399 -3.211 -5.203
-9.585 -1.551 -8.043
-5.301 -5.662 0.360
-8.049 -5.145 -2.902
-5.241 -5.681 0.439
-4.860 -5.188 0.329
-5.588 -5.680 0.093
-7.497 -5.503 -1.992
-5.241 -5.681 0.439
-5.300 -5.662 0.361
-4.206 -4.735 0.533
-4.645 -5.437 0.792
-4.205 -4.735 0.533
-7.140 -6.977 -0.161
-6.120 -5.728 -0.390
-7.502 -5.464 -2.035
-6.120 -5.728 -0.390
-7.588 -5.742 -1.844
-4.798 -5.176 0.379
-5.241 -5.681 0.439
-4.470 -5.429 0.958
-9.832 -1.461 -8.381
-8.689 -3.807 -4.884
-4.225 -4.744 0.522
-4.225 -4.743 0.522
-4.225 -4.743 0.522
-5.300 -5.662 0.361
-4.225 -4.743 0.522
-7.013 -6.950 -0.061
-5.469 -5.862 0.395
-7.013 -6.950 -0.061
-5.390 -5.693 0.303
-6.800 -7.049 0.243
-7.497 -5.503 -1.992
-4.517 -5.440 0.924
-7.140 -6.977 -0.161
-4.205 -4.735 0.533
-6.120 -5.728 -0.390
-7.140 -6.977 -0.161
-8.218 -5.006 -3.212
-5.251 -5.537 0.285
-5.289 -5.658 0.368
-5.573 -5.674 0.101
-8.775 -3.598 -5.183
-4.452 -5.170 0.721
-5.573 -5.674 0.101
-6.800 -7.049 0.243
-6.800 -7.049 0.243
-5.989 -6.572 0.585
-5.452 -5.675 0.222
-8.049 -5.145 -2.902
-5.588 -5.680 0.093
-9.743 -1.512 -8.241
-5.453 -5.675 0.222
-8.179 -3.709 -4.481
-7.588 -5.742 -1.843
-9.744 -1.512 -8.241
-7.588 -5.742 -1.843
-5.251 -5.536 0.284
-8.794 -3.713 -5.084
-5.629 -5.634 0.004
-7.640 -5.187 -2.450
-5.251 -5.548 0.296
-8.776 -3.598 -5.183
-4.731 -5.182 0.453
-4.731 -5.182 0.453
-8.219 -5.006 -3.212
-4.448 -5.160 0.715
-8.049 -5.145 -2.902
-4.798 -5.176 0.379
-4.452 -5.170 0.721
-9.744 -1.512 -8.241
-4.387 -6.040 1.651
-4.387 -6.040 1.651
-6.934 -7.071 0.131
-6.773 -6.495 -0.285
-5.574 -5.674 0.100
-5.390 -5.693 0.303
-5.300 -5.662 0.361
-5.372 -5.746 0.371
-5.372 -5.746 0.371
-4.206 -4.735 0.533
-9.743 -1.512 -8.240
-5.390 -5.693 0.303
-5.453 -5.675 0.221
-7.588 -5.743 -1.843
-5.989 -6.572 0.586
-6.774 -6.495 -0.285
-6.429 -6.108 -0.328
-6.934 -7.071 0.131
-4.205 -4.735 0.533
-5.452 -5.675 0.222
-7.588 -5.742 -1.844
-8.151 -3.781 -4.381
-8.322 -4.858 -3.464
-7.803 -4.538 -3.263
-5.300 -5.662 0.361
-7.012 -6.950 -0.061
-5.574 -5.674 0.100
-7.588 -5.742 -1.844
-8.049 -5.145 -2.902
-5.180 -5.591 0.411
-5.704 -6.582 0.874
-5.290 -5.658 0.368
-9.743 -1.512 -8.240
-10.195 -1.315 -8.888
-4.798 -5.176 0.378
-5.453 -5.675 0.222
-5.242 -5.681 0.438
-5.722 -5.784 0.059
-5.452 -5.674 0.222
-5.203 -5.605 0.401
-5.269 -5.307 0.039
-4.206 -4.735 0.533
-4.448 -5.160 0.715
-7.190 -6.559 -0.634
-4.730 -5.182 0.453
-7.013 -6.950 -0.062
-5.300 -5.662 0.361
-4.861 -5.188 0.329
-5.452 -5.675 0.222
-5.452 -5.675 0.222
-4.364 -6.033 1.668
-4.730 -5.182 0.453
-6.800 -7.049 0.242
-8.218 -5.006 -3.212
-6.993 -6.273 -0.721
-6.993 -6.273 -0.721
-5.975 -6.588 0.609
-7.949 -4.013 -3.938
-5.452 -5.675 0.222
-4.731 -5.182 0.453
-5.722 -5.784 0.059
-5.452 -5.674 0.222
-5.574 -5.674 0.100
-4.387 -6.041 1.652
-4.513 -5.429 0.916
-5.597 -5.719 0.123
-7.588 -5.742 -1.844
-8.048 -5.145 -2.902
-8.048 -5.145 -2.902
-4.860 -5.188 0.329
-5.722 -5.784 0.059
-8.689 -3.807 -4.884
-5.452 -5.675 0.222
-4.276 -5.412 1.135
-5.672 -5.794 0.120
-5.334 -5.763 0.427
-5.267 -5.667 0.399
-7.584 -5.745 -1.837
-7.363 -5.156 -2.204
-5.421 -5.679 0.258
-7.561 -5.440 -2.119
-6.930 -7.071 0.135
-5.200 -5.606 0.405
-5.448 -5.675 0.227
-5.448 -5.675 0.227
-10.121 -1.304 -8.824
-4.517 -5.441 0.924
-4.517 -5.441 0.924
-5.372 -5.746 0.372
-7.714 -5.057 -2.654
-7.514 -5.425 -2.087
-5.269 -5.307 0.039
-9.655 -1.546 -8.118
-5.205 -5.606 0.401
-4.449 -5.161 0.716
-7.655 -5.264 -2.389
-7.497 -5.503 -1.992
-8.218 -5.006 -3.212
-4.452 -5.170 0.721
-8.075 -5.068 -3.006
-7.679 -4.087 -3.594
-5.290 -5.658 0.368
-4.512 -5.429 0.916
-4.270 -4.720 0.453
-5.290 -5.658 0.368
-5.574 -5.674 0.100
-10.126 -1.301 -8.832
-5.336 -5.669 0.332
-8.049 -5.145 -2.902
-7.859 -3.795 -4.067
-5.588 -5.680 0.093
-5.241 -5.681 0.439
-8.153 -5.033 -3.119
-5.372 -5.746 0.372
-5.138 -5.840 0.704
-5.596 -5.719 0.124
-5.596 -5.719 0.124
-5.677 -6.582 0.901
-5.372 -5.746 0.372
-6.801 -7.049 0.242
-5.367 -5.748 0.378
-5.269 -5.307 0.039
-5.241 -5.681 0.439
-4.452 -5.170 0.721
-4.513 -5.429 0.916
-8.125 -4.988 -3.137
-10.126 -1.301 -8.833
-7.156 -6.567 -0.593
-8.794 -3.713 -5.083
-7.502 -5.464 -2.035
-5.975 -6.588 0.608
-8.851 -2.881 -5.977
-8.871 -2.452 -6.429
-7.515 -5.425 -2.089
-7.783 -5.153 -2.627
-6.757 -6.500 -0.264
-6.757 -6.500 -0.264
-5.300 -5.662 0.361
-7.566 -5.439 -2.125
-9.743 -1.512 -8.240
-5.453 -5.675 0.222
-9.743 -1.512 -8.240
-8.794 -3.713 -5.083
-10.126 -1.301 -8.832
-7.515 -5.425 -2.089
-4.448 -5.160 0.715
-4.276 -5.412 1.135
-7.013 -6.950 -0.061
-5.290 -5.658 0.368
-9.117 -3.318 -5.806
-8.049 -5.145 -2.902
-5.597 -5.719 0.124
-9.069 -3.319 -5.758
-5.300 -5.662 0.361
-5.125 -5.837 0.714
-8.794 -3.713 -5.083
-8.049 -5.145 -2.902
-7.729 -5.125 -2.601
-8.736 -3.809 -4.929
-7.515 -5.425 -2.088
-7.888 -4.939 -2.947
-6.758 -6.500 -0.265
-8.898 -3.459 -5.447
-5.720 -5.687 -0.033
-8.952 -2.562 -6.399
-7.588 -5.742 -1.844
-6.391 -7.097 0.707
-7.502 -5.464 -2.035
-5.269 -5.307 0.039
-7.497 -5.503 -1.992
-5.290 -5.658 0.368
-5.300 -5.662 0.361
-5.452 -5.675 0.222
-5.179 -5.591 0.411
-9.743 -1.512 -8.240
-7.925 -5.048 -2.875
-5.300 -5.662 0.361
-7.566 -5.439 -2.125
-5.290 -5.658 0.368
-4.385 -6.040 1.653
-5.574 -5.674 0.101
-5.678 -6.580 0.898
-7.515 -5.425 -2.089
-5.705 -6.581 0.872
-5.300 -5.662 0.361
-5.300 -5.662 0.361
-5.300 -5.662 0.361
-4.270 -4.720 0.453
-4.258 -5.412 1.153
-4.276 -5.412 1.135
-4.512 -5.429 0.916
-7.633 -5.747 -1.884
-7.925 -5.048 -2.875
-4.745 -6.284 1.537
-10.126 -1.301 -8.832
-8.689 -3.807 -4.884
-5.568 -5.674 0.107
-4.512 -5.429 0.916
-7.996 -4.989 -3.004
-4.205 -4.735 0.533
-5.389 -5.693 0.304
-7.548 -5.515 -2.030
-4.512 -5.429 0.916
-5.290 -5.658 0.368
-6.390 -7.097 0.708
-7.515 -5.425 -2.089
-5.290 -5.658 0.368
-5.452 -5.675 0.222
-5.389 -5.693 0.304
-7.590 -5.683 -1.905
-5.290 -5.658 0.368
-7.754 -4.571 -3.181
-5.179 -5.591 0.411
-5.324 -5.666 0.340
-7.515 -5.425 -2.089
-7.515 -5.425 -2.089
-7.515 -5.425 -2.089
-5.289 -5.659 0.370
-5.574 -5.674 0.100
-7.502 -5.464 -2.035
-6.758 -6.500 -0.264
-5.290 -5.658 0.368
-7.515 -5.425 -2.089
-7.502 -5.464 -2.035
-5.290 -5.658 0.368
-5.289 -5.659 0.369
-4.512 -5.429 0.916
-7.729 -5.125 -2.601
-8.125 -4.987 -3.137
-5.289 -5.659 0.370
-4.276 -5.412 1.135
-5.300 -5.662 0.361
-5.300 -5.662 0.361
-8.125 -4.987 -3.137
-4.270 -4.720 0.453
-5.367 -5.748 0.378
-4.258 -5.412 1.153
-8.689 -3.807 -4.884
-7.729 -5.125 -2.601
-5.289 -5.659 0.370
-5.433 -6.226 0.795
-4.225 -4.743 0.522
-7.508 -5.466 -2.039
-5.368 -5.748 0.377
-4.259 -5.412 1.152
-4.206 -4.735 0.533
-5.290 -5.659 0.369
-5.892 -7.110 1.213
-4.290 -5.412 1.121
-7.640 -5.755 -1.883
-8.131 -4.988 -3.143
-4.207 -4.736 0.532
-5.368 -5.748 0.377
-5.368 -5.748 0.377
-8.801 -2.879 -5.929
-4.513 -5.429 0.915
-4.513 -5.429 0.915
-7.892 -4.938 -2.951
-9.659 -1.544 -8.124
-7.691 -5.178 -2.510
-4.341 -5.413 1.071
-5.682 -6.580 0.893
-5.204 -5.605 0.401
-9.747 -1.510 -8.246
-7.508 -5.466 -2.039
-4.824 -5.182 0.359
-7.735 -5.126 -2.606
-5.290 -5.659 0.369
-7.554 -5.517 -2.034
-5.301 -5.662 0.361
-7.720 -5.126 -2.592
-5.301 -5.662 0.361
-7.734 -5.126 -2.606
-7.554 -5.517 -2.034
-9.595 -1.548 -8.056
-4.291 -5.413 1.120
-5.291 -5.659 0.368
-5.676 -6.584 0.903
-4.208 -4.736 0.531
-8.131 -4.982 -3.148
-8.087 -5.184 -2.901
-8.883 -2.430 -6.461
-5.677 -6.583 0.902
-8.100 -3.789 -4.322
-5.301 -5.662 0.360
-4.208 -4.736 0.531
-3.977 -5.935 1.957
-4.208 -4.736 0.531
-5.679 -6.582 0.898
-5.290 -5.659 0.368
-4.208 -4.736 0.531
-5.390 -5.693 0.303
-9.747 -1.510 -8.246
-7.596 -5.696 -1.898
-5.290 -5.659 0.368
-7.734 -5.126 -2.606
-4.207 -4.735 0.532
-5.247 -5.539 0.292
-5.570 -5.674 0.105
-5.290 -5.658 0.367
-4.513 -5.429 0.915
-4.270 -4.720 0.453
-7.453 -5.066 -2.386
-5.433 -6.225 0.793
-4.205 -4.735 0.533
-5.300 -5.662 0.361
-7.734 -5.126 -2.606
-5.325 -5.666 0.340
-8.738 -3.808 -4.932
-8.131 -4.988 -3.142
-4.207 -4.736 0.532
-4.207 -4.736 0.532
-6.937 -7.071 0.127
-7.508 -5.466 -2.039
-7.508 -5.466 -2.039
-7.734 -5.126 -2.605
-4.341 -5.413 1.072
-7.735 -5.126 -2.606
-4.207 -4.735 0.532
-5.290 -5.659 0.369
-4.290 -5.412 1.121
-8.772 -2.950 -5.828
-4.190 -4.750 0.564
-5.256 -5.664 0.407
-5.266 -5.668 0.401
-7.499 -5.465 -2.032
-7.777 -5.155 -2.619
-7.499 -5.465 -2.032
-5.268 -5.667 0.399
-5.678 -5.793 0.113
-5.256 -5.664 0.408
-5.268 -5.668 0.399
-5.334 -5.755 0.418
-7.567 -5.443 -2.122
-4.759 -5.180 0.421
-4.317 -5.415 1.097
-9.350 -1.323 -8.043
-5.254 -5.665 0.410
-4.172 -4.743 0.574
-4.172 -4.743 0.574
-7.732 -5.128 -2.601
-4.267 -5.415 1.147
-4.267 -5.415 1.147
-7.790 -5.085 -2.703
-5.266 -5.669 0.402
-5.139 -6.192 1.056
-5.214 -5.685 0.471
-8.693 -3.811 -4.884
-4.270 -5.415 1.144
-7.786 -5.155 -2.629
-4.238 -5.415 1.176
-8.693 -3.811 -4.884
-4.238 -5.415 1.176
-8.734 -3.814 -4.923
-5.261 -5.664 0.401
-5.261 -5.664 0.401
-7.508 -5.466 -2.040
-7.786 -5.155 -2.629
-4.270 -5.415 1.144
-7.520 -5.428 -2.091
-7.786 -5.155 -2.629
-7.451 -5.067 -2.383
-8.734 -3.814 -4.923
-5.261 -5.664 0.401
-7.761 -5.093 -2.665
-8.734 -3.814 -4.923
-7.570 -5.442 -2.126
-5.272 -5.667 0.394
-4.270 -5.415 1.144
-4.270 -5.415 1.144
-5.106 -6.101 0.998
-5.261 -5.663 0.401
-5.433 -6.225 0.793
-4.175 -4.741 0.570
-4.238 -5.415 1.176
-7.508 -5.426 -2.080
-7.733 -5.127 -2.603
-4.238 -5.415 1.176
-7.719 -5.127 -2.589
-4.270 -5.415 1.144
-8.908 -7.791 -1.114
-8.908 -7.791 -1.114
-8.820 -7.466 -1.350
-8.743 -7.595 -1.144
-8.058 -7.214 -0.842
-8.908 -7.789 -1.116
-8.731 -7.797 -0.931
-8.731 -7.797 -0.931
-8.908 -7.789 -1.116
-8.571 -7.799 -0.769
-8.908 -7.789 -1.116
-9.063 -8.062 -0.997
-8.731 -7.797 -0.931
-8.506 -7.883 -0.620
-8.058 -7.214 -0.842
-8.974 -7.868 -1.102
-8.568 -7.873 -0.691
-8.392 -7.373 -1.016
-8.358 -7.370 -0.985
-8.058 -7.214 -0.842
-8.908 -7.789 -1.116
-9.137 -8.043 -1.092
-9.078 -8.039 -1.036
-8.908 -7.789 -1.116
-8.908 -7.789 -1.116
-8.927 -7.908 -1.015
-8.908 -7.789 -1.116
-8.804 -7.860 -0.941
-8.571 -7.799 -0.769
-8.058 -7.214 -0.842
-8.731 -7.797 -0.931
-8.571 -7.799 -0.769
-8.731 -7.797 -0.931
-8.974 -7.868 -1.103
-8.571 -7.799 -0.769
-9.198 -7.998 -1.197
-8.908 -7.789 -1.116
-8.908 -7.789 -1.116
-9.137 -8.043 -1.092
-9.198 -7.998 -1.197
-8.144 -7.356 -0.786
-8.611 -7.799 -0.809
-8.731 -7.797 -0.931
-8.611 -7.799 -0.809
-9.137 -8.043 -1.092
-9.018 -7.992 -1.023
-8.794 -7.906 -0.884
-8.571 -7.799 -0.769
-8.611 -7.799 -0.809
-9.121 -7.995 -1.123
-8.794 -7.906 -0.884
-8.666 -7.795 -0.867
-8.793 -7.906 -0.884
-8.611 -7.799 -0.809
-8.666 -7.795 -0.867
-8.731 -7.797 -0.931
-9.078 -8.039 -1.036
-8.927 -7.908 -1.015
-9.121 -7.995 -1.123
-8.731 -7.797 -0.931
-9.078 -8.039 -1.036
-8.179 -7.318 -0.858
-8.731 -7.797 -0.931
-8.592 -7.921 -0.669
-8.974 -7.868 -1.103
-8.731 -7.797 -0.931
-9.198 -7.998 -1.197
-8.179 -7.318 -0.858
-8.948 -8.060 -0.885
-8.666 -7.795 -0.867
-8.794 -7.906 -0.884
-8.834 -7.864 -0.967
-8.804 -7.860 -0.941
-8.879 -8.062 -0.814
-8.715 -7.907 -0.805
-8.715 -7.907 -0.805
-8.804 -7.860 -0.941
-8.908 -7.789 -1.116
-8.716 -7.907 -0.805
-8.716 -7.907 -0.805
-8.716 -7.907 -0.805
-8.908 -7.789 -1.116
-8.941 -8.042 -0.897
-8.611 -7.799 -0.809
-8.793 -7.906 -0.884
-9.004 -7.993 -1.007
-8.948 -8.060 -0.885
-9.018 -7.992 -1.023
-8.460 -7.874 -0.583
-9.018 -7.992 -1.023
-8.804 -7.860 -0.941
-9.198 -7.998 -1.197
-8.568 -7.873 -0.691
-8.611 -7.799 -0.809
-9.061 -8.059 -0.999
-8.908 -7.789 -1.116
-9.121 -7.995 -1.123
-9.137 -8.043 -1.092
-8.608 -7.873 -0.731
-8.908 -7.789 -1.116
-8.883 -7.868 -1.013
-8.948 -8.060 -0.885
-8.731 -7.797 -0.931
-8.862 -7.899 -0.961
-8.744 -7.868 -0.873
-8.868 -8.043 -0.823
-9.064 -8.062 -0.998
-8.611 -7.799 -0.809
-8.611 -7.799 -0.809
-9.079 -8.039 -1.038
-8.862 -7.899 -0.961
-8.804 -7.860 -0.941
-7.979 -7.295 -0.680
-9.198 -7.998 -1.197
-8.666 -7.795 -0.867
-8.569 -7.916 -0.650
-8.611 -7.799 -0.809
-8.948 -8.060 -0.885
-8.568 -7.873 -0.691
-8.666 -7.795 -0.867
-8.503 -7.530 -0.970
-9.137 -8.043 -1.092
-8.592 -7.921 -0.669
-8.908 -7.789 -1.116
-8.592 -7.921 -0.669
-8.611 -7.799 -0.809
-8.666 -7.795 -0.867
-9.064 -8.062 -0.998
-8.908 -7.789 -1.116
-8.144 -7.356 -0.786
-9.137 -8.043 -1.092
-8.941 -8.042 -0.897
-8.731 -7.797 -0.931
-8.503 -7.530 -0.970
-8.666 -7.795 -0.867
-8.879 -8.062 -0.814
-8.571 -7.799 -0.769
-9.011 -8.063 -0.944
-9.018 -7.992 -1.023
-9.198 -7.998 -1.197
-8.666 -7.795 -0.867
-9.137 -8.043 -1.092
-9.198 -7.998 -1.197
-9.198 -7.998 -1.197
-9.198 -7.998 -1.197
-8.450 -7.869 -0.577
-8.716 -7.907 -0.805
-9.137 -8.043 -1.092
-8.266 -7.513 -0.749
-8.392 -7.737 -0.651
-8.603 -7.911 -0.689
-8.532 -7.734 -0.795
-8.924 -7.990 -0.930
-9.137 -8.043 -1.092
-8.863 -7.899 -0.961
-8.592 -7.921 -0.669
-8.532 -7.734 -0.795
-8.804 -7.860 -0.941
-8.863 -7.899 -0.961
-8.863 -7.899 -0.961
-8.863 -7.899 -0.961
-8.592 -7.921 -0.669
-8.908 -7.789 -1.116
-8.731 -7.797 -0.931
-9.121 -7.995 -1.123
-8.603 -7.911 -0.689
-9.137 -8.043 -1.092
-8.503 -7.530 -0.970
-8.571 -7.799 -0.769
-8.503 -7.530 -0.970
-8.358 -7.370 -0.984
-8.592 -7.921 -0.669
-9.078 -8.039 -1.036
-8.738 -7.861 -0.874
-8.862 -7.899 -0.961
-9.198 -7.998 -1.197
-8.532 -7.734 -0.795
-8.460 -7.874 -0.583
-8.948 -8.060 -0.885
-8.948 -8.060 -0.885
-8.666 -7.795 -0.867
-8.503 -7.530 -0.970
-8.503 -7.530 -0.970
-8.144 -7.356 -0.786
-8.460 -7.874 -0.583
-8.948 -8.060 -0.885
-8.457 -7.914 -0.540
-8.450 -7.869 -0.577
-8.516 -7.530 -0.982
-8.934 -8.031 -0.901
-8.509 -7.883 -0.622
-8.290 -7.303 -0.985
-8.574 -7.798 -0.772
-8.804 -7.860 -0.940
-8.266 -7.513 -0.749
-9.061 -8.059 -0.999
-8.862 -7.899 -0.961
-8.503 -7.530 -0.970
-8.738 -7.861 -0.874
-9.018 -7.992 -1.022
-9.198 -7.998 -1.197
-8.457 -7.914 -0.540
-8.877 -8.070 -0.803
-8.706 -7.795 -0.907
-8.503 -7.530 -0.970
-8.084 -7.237 -0.844
-8.744 -7.868 -0.873
-8.862 -7.899 -0.961
-9.137 -8.043 -1.092
-8.908 -7.789 -1.116
-8.947 -8.022 -0.922
-8.460 -7.873 -0.583
-8.532 -7.734 -0.795
-8.532 -7.734 -0.795
-8.908 -7.789 -1.116
-8.503 -7.530 -0.970
-8.780 -8.037 -0.741
-8.926 -7.908 -1.015
-8.738 -7.861 -0.873
-8.804 -7.860 -0.940
-8.457 -7.914 -0.539
-8.793 -7.906 -0.884
-8.503 -7.530 -0.970
-8.706 -7.795 -0.907
-8.808 -8.037 -0.769
-8.532 -7.734 -0.795
-8.279 -7.352 -0.924
-8.054 -7.223 -0.829
-8.404 -7.611 -0.790
-8.804 -7.860 -0.941
-8.611 -7.799 -0.809
-8.061 -7.296 -0.761
-8.592 -7.921 -0.668
-8.503 -7.530 -0.970
-8.294 -7.538 -0.754
-8.266 -7.513 -0.749
-8.666 -7.795 -0.867
-8.571 -7.799 -0.769
-8.743 -7.866 -0.874
-8.532 -7.734 -0.795
-8.571 -7.799 -0.769
-8.503 -7.530 -0.970
-8.503 -7.530 -0.970
-8.603 -7.911 -0.689
-9.198 -7.998 -1.197
-9.018 -7.992 -1.023
-8.281 -7.538 -0.741
-8.744 -7.868 -0.873
-8.842 -7.868 -0.970
-8.457 -7.914 -0.540
-8.457 -7.914 -0.540
-8.611 -7.799 -0.809
-9.137 -8.043 -1.092
-8.266 -7.513 -0.749
-8.741 -7.919 -0.819
-8.084 -7.237 -0.844
-8.948 -8.060 -0.885
-8.908 -7.789 -1.116
-8.592 -7.921 -0.669
-8.084 -7.237 -0.844
-8.568 -7.873 -0.691
-8.391 -7.737 -0.651
-8.611 -7.799 -0.809
-8.457 -7.914 -0.540
-8.084 -7.237 -0.844
-8.532 -7.734 -0.795
-9.137 -8.043 -1.092
-8.879 -8.062 -0.814
-8.769 -7.987 -0.779
-8.457 -7.914 -0.540
-8.460 -7.874 -0.583
-8.592 -7.921 -0.669
-8.741 -7.919 -0.819
-9.137 -8.043 -1.092
-9.137 -8.043 -1.092
-9.137 -8.043 -1.092
-8.862 -7.899 -0.961
-8.532 -7.734 -0.795
-8.804 -7.860 -0.941
-8.841 -7.869 -0.969
-8.532 -7.734 -0.795
-8.908 -7.789 -1.116
-8.266 -7.513 -0.749
-8.404 -7.611 -0.790
-8.908 -7.789 -1.116
-8.842 -7.868 -0.970
-8.842 -7.868 -0.970
-8.842 -7.868 -0.970
-8.266 -7.513 -0.749
-8.503 -7.530 -0.970
-8.503 -7.530 -0.970
-8.532 -7.734 -0.795
-8.941 -8.042 -0.897
-8.108 -7.249 -0.856
-8.108 -7.249 -0.856
-8.278 -7.364 -0.911
-8.503 -7.530 -0.970
-8.503 -7.530 -0.970
-8.395 -7.371 -1.020
-8.281 -7.538 -0.740
-8.503 -7.530 -0.970
-8.881 -7.868 -1.010
-7.841 -7.197 -0.640
-8.569 -7.916 -0.650
-8.569 -7.916 -0.650
-8.879 -8.062 -0.814
-8.863 -7.899 -0.961
-8.404 -7.611 -0.790
-8.054 -7.223 -0.829
-8.457 -7.914 -0.540
-7.758 -7.206 -0.549
-8.842 -7.868 -0.970
-8.924 -7.990 -0.930
-8.808 -8.037 -0.769
-8.532 -7.734 -0.795
-8.404 -7.611 -0.790
-8.934 -8.031 -0.901
-8.879 -8.062 -0.814
-8.404 -7.611 -0.790
-8.974 -7.868 -1.102
-8.611 -7.799 -0.809
-8.976 -7.992 -0.981
-9.137 -8.043 -1.092
-8.503 -7.530 -0.970
-8.532 -7.734 -0.795
-8.744 -7.868 -0.873
-8.503 -7.530 -0.970
-8.460 -7.874 -0.583
-8.506 -7.883 -0.620
-8.281 -7.538 -0.740
-8.974 -7.868 -1.102
-8.054 -7.223 -0.829
-7.858 -7.316 -0.539
-8.503 -7.530 -0.970
-8.809 -8.037 -0.769
-8.532 -7.734 -0.795
-8.842 -7.868 -0.970
-8.134 -7.259 -0.873
-8.842 -7.868 -0.970
-8.404 -7.611 -0.790
-8.503 -7.530 -0.970
-8.054 -7.223 -0.829
-8.879 -8.062 -0.814
-8.842 -7.868 -0.970
-7.979 -7.295 -0.680
-8.892 -7.994 -0.896
-8.084 -7.237 -0.844
-8.937 -8.057 -0.877
-8.666 -7.795 -0.867
-8.976 -7.992 -0.981
-8.108 -7.249 -0.856
-8.716 -7.907 -0.805
-8.404 -7.611 -0.790
-8.974 -7.868 -1.102
-8.744 -7.868 -0.873
-8.054 -7.223 -0.829
-8.532 -7.734 -0.795
-8.108 -7.249 -0.856
-7.758 -7.206 -0.549
-7.758 -7.206 -0.549
-8.738 -7.861 -0.874
-8.281 -7.538 -0.741
-7.858 -7.316 -0.539
-8.084 -7.237 -0.844
-8.460 -7.874 -0.583
-9.169 -8.061 -1.105
-8.809 -8.037 -0.770
-8.404 -7.611 -0.790
-8.463 -7.599 -0.860
-7.858 -7.316 -0.539
-9.018 -8.039 -0.977
-8.054 -7.223 -0.829
-9.062 -8.058 -1.000
-9.138 -8.042 -1.093
-9.138 -8.042 -1.093
-8.909 -7.789 -1.117
-8.949 -8.022 -0.924
-8.457 -7.914 -0.540
-8.949 -8.022 -0.924
-8.593 -7.920 -0.669
-8.843 -7.868 -0.971
-8.404 -7.611 -0.790
-8.503 -7.530 -0.970
-8.741 -7.919 -0.819
-8.503 -7.530 -0.970
-8.593 -7.921 -0.669
-8.108 -7.249 -0.856
-8.503 -7.530 -0.970
-8.108 -7.249 -0.856
-9.019 -7.991 -1.024
-8.457 -7.914 -0.540
-8.457 -7.914 -0.540
-8.457 -7.914 -0.540
-8.909 -7.789 -1.117
-8.281 -7.538 -0.741
-9.123 -7.995 -1.124
-8.144 -7.356 -0.786
-7.758 -7.206 -0.549
-8.108 -7.249 -0.856
-8.457 -7.914 -0.540
-8.457 -7.914 -0.540
-8.880 -8.062 -0.815
-8.976 -7.868 -1.104
-8.507 -7.883 -0.620
-8.569 -7.916 -0.650
-8.338 -7.870 -0.465
-8.404 -7.611 -0.790
-8.507 -7.883 -0.620
-8.745 -7.868 -0.874
-8.949 -8.022 -0.924
-8.507 -7.883 -0.620
-8.809 -8.037 -0.770
-8.809 -8.037 -0.770
-7.858 -7.315 -0.539
-8.587 -7.526 -1.058
-8.392 -7.736 -0.653
-9.170 -8.061 -1.105
-8.135 -7.259 -0.873
-8.108 -7.249 -0.856
-9.139 -8.042 -1.094
-8.593 -7.920 -0.669
-8.054 -7.223 -0.829
-8.706 -7.795 -0.908
-8.108 -7.249 -0.856
-8.948 -8.060 -0.886
-8.054 -7.223 -0.829
-8.504 -7.529 -0.972
-8.593 -7.920 -0.669
-8.976 -7.868 -1.104
-8.504 -7.529 -0.972
-8.108 -7.249 -0.856
-8.379 -7.552 -0.823
-8.949 -8.022 -0.924
-7.758 -7.205 -0.550
-8.833 -7.871 -0.959
-8.103 -7.250 -0.850
-7.855 -7.318 -0.534
-8.670 -7.918 -0.748
-8.502 -7.531 -0.968
-8.103 -7.250 -0.850
-8.436 -7.644 -0.790
-8.800 -8.040 -0.758
-8.355 -7.371 -0.980
-8.503 -7.530 -0.969
-8.590 -7.923 -0.664
-8.532 -7.734 -0.794
-8.107 -7.250 -0.855
-8.107 -7.250 -0.855
-8.281 -7.539 -0.740
-8.107 -7.250 -0.855
-8.532 -7.734 -0.794
-8.974 -7.868 -1.103
-8.054 -7.223 -0.829
-9.018 -7.992 -1.023
-8.282 -7.538 -0.741
-8.108 -7.250 -0.855
-8.108 -7.250 -0.855
-8.054 -7.223 -0.828
-8.282 -7.538 -0.741
-8.054 -7.223 -0.829
-8.842 -7.869 -0.970
-8.404 -7.611 -0.790
-8.809 -8.037 -0.769
-8.054 -7.223 -0.829
-8.108 -7.250 -0.855
-8.842 -7.869 -0.970
-7.858 -7.316 -0.539
-7.758 -7.206 -0.549
-8.976 -7.993 -0.980
-7.858 -7.316 -0.539
-8.503 -7.530 -0.970
-8.503 -7.530 -0.970
-8.842 -7.869 -0.970
-8.809 -8.037 -0.769
-8.809 -8.037 -0.769
-8.941 -8.042 -0.897
-7.858 -7.316 -0.539
-8.879 -8.062 -0.814
-8.533 -7.734 -0.795
-7.979 -7.296 -0.680
-8.974 -7.868 -1.103
-8.462 -7.874 -0.585
-8.054 -7.223 -0.829
-7.758 -7.206 -0.549
-8.934 -8.031 -0.901
-8.809 -8.037 -0.770
-8.593 -7.921 -0.669
-7.858 -7.316 -0.539
-8.054 -7.223 -0.829
-8.054 -7.223 -0.829
-8.404 -7.611 -0.790
-8.404 -7.611 -0.790
-7.858 -7.316 -0.539
-8.533 -7.734 -0.795
-8.054 -7.223 -0.829
-8.054 -7.223 -0.829
-8.054 -7.223 -0.829
-8.974 -7.868 -1.103
-9.122 -7.996 -1.123
-8.108 -7.249 -0.855
-8.970 -8.044 -0.924
-8.456 -7.914 -0.540
-8.145 -7.357 -0.786
-8.378 -7.552 -0.823
-8.649 -7.798 -0.847
-8.828 -8.037 -0.788
-8.145 -7.357 -0.786
-8.544 -7.733 -0.808
-8.356 -7.370 -0.982
-5.478 -6.450 0.973
-4.053 -5.202 1.152
-4.053 -5.202 1.152
-5.566 -6.478 0.915
-5.528 -6.435 0.908
-5.235 -6.444 1.211
-4.953 -6.741 1.788
-3.904 -4.752 0.850
-5.528 -6.435 0.908
-3.857 -4.766 0.912
-5.121 -6.462 1.343
-4.683 -6.756 2.052
-4.991 -5.998 1.001
-5.528 -6.435 0.909
-5.528 -6.435 0.908
-3.903 -4.752 0.851
-3.912 -4.751 0.842
-5.528 -6.435 0.909
-4.076 -5.154 1.080
-3.988 -5.210 1.225
-5.528 -6.435 0.909
-4.991 -5.998 1.001
-4.683 -6.756 2.052
-4.057 -5.201 1.146
-4.683 -6.756 2.052
-4.676 -6.767 2.068
-3.914 -5.208 1.297
-3.884 -6.649 2.744
-4.676 -6.767 2.068
-3.868 -4.766 0.901
-5.527 -6.435 0.909
-3.933 -4.750 0.820
-5.512 -6.501 0.989
-3.912 -4.751 0.842
-5.527 -6.435 0.909
-5.611 -6.460 0.851
-4.715 -6.724 2.003
-4.674 -6.768 2.071
-5.526 -6.435 0.911
-4.674 -6.768 2.071
-4.065 -5.151 1.088
-4.065 -5.151 1.088
-5.238 -6.444 1.209
-5.527 -6.435 0.909
-4.577 -6.733 2.149
-5.526 -6.435 0.911
-4.715 -6.724 2.003
-4.057 -5.201 1.146
-5.609 -6.460 0.853
-5.527 -6.435 0.909
-3.867 -4.767 0.901
-4.087 -5.296 1.204
-4.076 -5.154 1.080
-4.754 -6.801 2.027
-4.754 -6.801 2.027
-5.609 -6.460 0.853
-3.912 -4.751 0.842
-5.417 -6.444 1.029
-4.675 -6.768 2.069
-4.042 -5.276 1.229
-4.042 -5.276 1.229
-5.525 -6.435 0.911
-5.610 -6.460 0.852
-5.121 -6.462 1.343
-3.915 -6.620 2.686
-5.160 -6.461 1.304
-4.577 -6.733 2.149
-3.914 -5.208 1.297
-4.051 -5.203 1.154
-5.526 -6.435 0.911
-5.609 -6.460 0.853
-4.733 -6.728 1.992
-3.911 -4.751 0.842
-4.753 -6.801 2.027
-4.574 -6.733 2.151
-5.237 -6.450 1.215
-5.527 -6.435 0.909
-4.065 -5.151 1.088
-4.065 -5.151 1.088
-4.097 -5.298 1.196
-3.856 -4.766 0.912
-5.417 -6.444 1.029
-3.912 -4.751 0.842
-4.754 -6.801 2.027
-4.097 -5.298 1.196
-3.914 -5.208 1.297
-4.754 -6.801 2.027
-3.903 -4.752 0.851
-4.675 -6.768 2.069
-4.675 -6.768 2.070
-3.933 -4.750 0.820
-4.042 -5.276 1.229
-4.042 -5.276 1.229
-3.914 -5.208 1.297
-3.903 -4.752 0.851
-4.086 -5.296 1.205
-3.903 -4.752 0.851
-4.065 -5.151 1.088
-4.966 -6.003 1.031
-5.417 -6.444 1.029
-5.122 -6.462 1.343
-3.912 -4.752 0.842
-5.527 -6.435 0.910
-4.675 -6.767 2.070
-4.042 -5.276 1.229
-3.915 -6.620 2.686
-4.065 -5.151 1.088
-3.914 -5.208 1.297
-5.527 -6.435 0.908
-5.527 -6.435 0.908
-3.885 -6.649 2.743
-3.764 -5.158 1.397
-5.122 -6.462 1.343
-5.238 -6.444 1.208
-4.715 -6.724 2.003
-5.588 -5.719 0.132
-3.754 -4.742 0.990
-5.526 -6.435 0.911
-4.042 -5.276 1.229
-3.912 -4.751 0.842
-5.477 -6.482 1.005
-3.915 -6.620 2.686
-5.527 -6.435 0.909
-4.062 -5.142 1.082
-3.914 -5.208 1.297
-5.487 -6.454 0.969
-4.966 -6.003 1.030
-5.528 -6.435 0.908
-5.528 -6.435 0.908
-4.079 -5.293 1.208
-5.122 -6.462 1.343
-3.764 -5.158 1.397
-3.867 -4.767 0.901
-4.898 -6.741 1.842
-4.754 -6.801 2.027
-5.322 -5.671 0.348
-5.322 -5.671 0.348
-3.868 -4.767 0.900
-3.915 -5.208 1.296
-3.857 -4.766 0.911
-4.899 -6.741 1.842
-4.678 -6.767 2.066
-3.913 -4.752 0.841
-4.814 -5.763 0.950