-17.213 -6.810 -10.395
-17.213 -6.810 -10.395
-17.213 -6.810 -10.395
-17.274 -6.839 -10.427
-18.150 -6.727 -11.415
-16.784 -6.846 -9.930
-16.181 -6.433 -9.756
-17.582 -6.854 -10.720
-17.287 -6.838 -10.440
-17.287 -6.838 -10.440
-17.287 -6.838 -10.440
-17.287 -6.838 -10.440
-16.181 -6.433 -9.756
-16.181 -6.433 -9.756
-17.287 -6.838 -10.440
-18.158 -6.726 -11.424
-17.582 -6.854 -10.720
-16.181 -6.433 -9.756
-16.181 -6.433 -9.756
-16.784 -6.846 -9.930
-18.158 -6.726 -11.424
-17.226 -6.810 -10.408
-16.181 -6.433 -9.756
-17.226 -6.810 -10.408
-18.158 -6.726 -11.424
-17.226 -6.810 -10.408
-17.226 -6.810 -10.408
-18.158 -6.726 -11.424
-17.226 -6.810 -10.408
-17.287 -6.838 -10.440
-16.240 -6.412 -9.837
-16.240 -6.412 -9.837
-16.181 -6.433 -9.756
-16.181 -6.433 -9.756
-16.181 -6.433 -9.756
-16.181 -6.433 -9.756
-16.181 -6.433 -9.756
-17.226 -6.810 -10.408
-17.168 -6.809 -10.351
-16.265 -6.411 -9.863
-17.248 -6.810 -10.431
-16.265 -6.411 -9.863
-16.265 -6.411 -9.863
-17.248 -6.810 -10.431
-17.248 -6.810 -10.431
-17.248 -6.810 -10.431
-17.248 -6.810 -10.431
-16.206 -6.432 -9.783
-16.206 -6.432 -9.783
-17.309 -6.838 -10.463
-17.309 -6.838 -10.463
-17.248 -6.810 -10.431
-17.248 -6.810 -10.431
-17.248 -6.810 -10.431
-18.181 -6.725 -11.448
-17.248 -6.810 -10.431
-17.248 -6.810 -10.431
-17.248 -6.810 -10.431
-17.248 -6.810 -10.431
-16.265 -6.411 -9.863
-17.309 -6.838 -10.463
-17.248 -6.810 -10.431
-16.206 -6.432 -9.783
-17.309 -6.838 -10.463
-16.206 -6.432 -9.783
-17.248 -6.810 -10.431
-16.206 -6.432 -9.783
-16.206 -6.432 -9.783
-17.309 -6.838 -10.463
-17.309 -6.838 -10.463
-17.309 -6.838 -10.463
-17.248 -6.810 -10.431
-17.248 -6.810 -10.431
-17.309 -6.838 -10.463
-17.248 -6.810 -10.431
-17.248 -6.810 -10.431
-17.248 -6.810 -10.431
-17.248 -6.810 -10.431
-17.248 -6.810 -10.431
-16.206 -6.432 -9.783
-17.309 -6.838 -10.463
-17.248 -6.810 -10.431
-17.309 -6.838 -10.463
-17.248 -6.810 -10.431
-16.265 -6.411 -9.863
-16.179 -6.416 -9.772
-17.593 -6.852 -10.732
-16.206 -6.432 -9.783
-17.248 -6.810 -10.431
-15.754 -6.469 -9.291
-6.735 -7.770 1.046
-17.249 -6.810 -10.432
-17.249 -6.810 -10.432
-17.249 -6.810 -10.432
-17.249 -6.810 -10.432
-15.754 -6.469 -9.291
-16.807 -6.845 -9.954
-17.309 -6.838 -10.463
-17.249 -6.810 -10.431
-17.249 -6.810 -10.431
-16.807 -6.845 -9.954
-17.309 -6.838 -10.463
-17.249 -6.810 -10.431
-6.086 -7.813 1.737
-18.180 -6.725 -11.447
-16.206 -6.432 -9.782
-16.532 -6.433 -10.109
-16.206 -6.432 -9.782
-17.309 -6.838 -10.463
-17.309 -6.838 -10.463
-17.593 -6.852 -10.732
-17.593 -6.852 -10.732
-17.593 -6.852 -10.732
-18.180 -6.725 -11.447
-18.180 -6.725 -11.447
-18.180 -6.725 -11.447
-17.248 -6.810 -10.431
-17.248 -6.810 -10.431
-17.309 -6.838 -10.463
-17.248 -6.810 -10.431
-16.206 -6.432 -9.782
-17.593 -6.852 -10.732
-17.248 -6.810 -10.431
-17.309 -6.838 -10.463
-17.309 -6.838 -10.463
-17.309 -6.838 -10.463
-8.162 -7.570 -0.585
-8.162 -7.570 -0.585
-18.181 -6.725 -11.448
-5.816 -7.125 1.320
-17.317 -6.837 -10.472
-18.189 -6.724 -11.457
-16.537 -6.432 -10.115
-17.317 -6.837 -10.472
-17.257 -6.809 -10.440
-17.257 -6.809 -10.440
-17.257 -6.809 -10.440
-17.257 -6.809 -10.440
-17.257 -6.809 -10.440
-17.317 -6.837 -10.472
-17.317 -6.837 -10.472
-8.162 -7.570 -0.586
-16.212 -6.431 -9.789
-17.317 -6.837 -10.472
-17.601 -6.852 -10.741
-17.257 -6.809 -10.440
-17.257 -6.809 -10.440
-17.317 -6.837 -10.472
-16.271 -6.410 -9.869
-6.735 -7.770 1.045
-17.257 -6.809 -10.441
-17.257 -6.809 -10.441
-16.272 -6.410 -9.870
-16.272 -6.410 -9.870
-17.257 -6.809 -10.441
-16.272 -6.410 -9.870
-6.735 -7.770 1.045
-17.317 -6.837 -10.472
-17.317 -6.837 -10.472
-6.087 -7.812 1.735
-17.317 -6.837 -10.472
-15.759 -6.468 -9.297
-17.257 -6.809 -10.440
-17.601 -6.852 -10.742
-17.601 -6.852 -10.742
-6.740 -7.769 1.039
-17.317 -6.837 -10.472
-17.256 -6.809 -10.440
-17.256 -6.809 -10.440
-17.256 -6.809 -10.440
-18.189 -6.724 -11.457
-17.256 -6.809 -10.440
-16.270 -6.410 -9.869
-17.256 -6.809 -10.440
-17.317 -6.837 -10.472
-16.211 -6.431 -9.788
-16.211 -6.431 -9.788
-17.317 -6.837 -10.472
-6.740 -7.769 1.040
-16.211 -6.431 -9.788
-16.211 -6.431 -9.788
-17.601 -6.852 -10.741
-17.601 -6.852 -10.741
-17.601 -6.852 -10.741
-17.601 -6.852 -10.741
-17.256 -6.809 -10.440
-17.256 -6.809 -10.440
-17.256 -6.809 -10.440
-17.317 -6.837 -10.472
-17.256 -6.809 -10.440
-17.256 -6.809 -10.440
-17.256 -6.809 -10.440
-17.256 -6.809 -10.440
-17.317 -6.837 -10.472
-16.211 -6.431 -9.788
-16.211 -6.431 -9.788
-16.211 -6.431 -9.788
-17.317 -6.837 -10.472
-8.162 -7.570 -0.586
-17.317 -6.837 -10.472
-17.317 -6.837 -10.472
-17.317 -6.837 -10.472
-16.815 -6.844 -9.963
-16.212 -6.431 -9.789
-17.257 -6.809 -10.440
-17.318 -6.837 -10.472
-16.815 -6.844 -9.963
-18.189 -6.724 -11.457
-8.162 -7.570 -0.586
-6.741 -7.769 1.038
-18.190 -6.724 -11.457
-16.211 -6.431 -9.788
-16.537 -6.432 -10.115
-16.537 -6.432 -10.115
-17.256 -6.809 -10.440
-16.211 -6.431 -9.788
-17.256 -6.809 -10.440
-17.256 -6.809 -10.440
-17.176 -6.808 -10.359
-16.270 -6.410 -9.869
-16.815 -6.844 -9.963
-18.189 -6.724 -11.457
-18.189 -6.724 -11.457
-17.257 -6.809 -10.440
-17.601 -6.852 -10.742
-17.318 -6.837 -10.472
-17.257 -6.809 -10.440
-6.739 -7.769 1.040
-6.739 -7.769 1.040
-17.317 -6.837 -10.472
-16.211 -6.431 -9.788
-17.317 -6.837 -10.472
-17.317 -6.837 -10.472
-17.317 -6.837 -10.472
-17.317 -6.837 -10.472
-17.317 -6.837 -10.472
-16.211 -6.431 -9.788
-17.274 -6.839 -10.427
-16.224 -6.413 -9.820
-17.274 -6.839 -10.427
-17.213 -6.811 -10.394
-17.213 -6.811 -10.394
-17.213 -6.811 -10.394
-16.164 -6.434 -9.739
-18.150 -6.727 -11.415
-16.166 -6.416 -9.759
-17.301 -6.839 -10.453
-17.301 -6.839 -10.453
-17.301 -6.839 -10.453
-16.194 -6.432 -9.770
-17.301 -6.839 -10.453
-16.253 -6.412 -9.851
-16.253 -6.412 -9.851
-17.240 -6.811 -10.421
-17.585 -6.853 -10.723
-17.301 -6.839 -10.453
-17.585 -6.853 -10.723
-17.585 -6.853 -10.723
-17.585 -6.853 -10.723
-6.745 -7.771 1.036
-17.249 -6.810 -10.432
-16.206 -6.432 -9.782
-6.740 -7.772 1.042
-9.912 -4.776 -5.133
-6.740 -7.772 1.042
-17.309 -6.838 -10.463
-17.309 -6.838 -10.463
-17.309 -6.838 -10.463
-17.309 -6.838 -10.463
-17.309 -6.838 -10.463
-17.309 -6.838 -10.463
-6.085 -7.812 1.737
-17.309 -6.838 -10.463
-16.264 -6.411 -9.863
-8.162 -7.570 -0.585
-17.309 -6.838 -10.463
-16.206 -6.432 -9.782
-17.309 -6.838 -10.463
-17.309 -6.838 -10.463
-16.807 -6.845 -9.953
-16.532 -6.433 -10.109
-17.309 -6.838 -10.463
-17.593 -6.852 -10.732
-16.532 -6.433 -10.109
-16.532 -6.433 -10.109
-16.265 -6.411 -9.863
-17.309 -6.838 -10.463
-17.309 -6.838 -10.463
-6.739 -7.769 1.040
-6.739 -7.769 1.040
-16.205 -6.432 -9.782
-4.839 -5.921 1.093
-17.317 -6.837 -10.471
-15.759 -6.468 -9.297
-16.271 -6.410 -9.869
-16.271 -6.410 -9.869
-16.271 -6.410 -9.869
-16.271 -6.410 -9.869
-17.601 -6.852 -10.741
-17.317 -6.837 -10.472
-8.162 -7.570 -0.586
-16.272 -6.410 -9.870
-17.103 -6.859 -10.236
-17.317 -6.837 -10.472
-16.271 -6.410 -9.869
-4.839 -5.921 1.093
-17.317 -6.837 -10.472
-17.317 -6.837 -10.472
-4.837 -5.922 1.095
-17.257 -6.809 -10.441
-16.815 -6.844 -9.962
-16.815 -6.844 -9.962
-15.759 -6.468 -9.297
-17.317 -6.837 -10.472
-17.317 -6.837 -10.472
-17.317 -6.837 -10.472
-16.815 -6.844 -9.962
-17.317 -6.837 -10.472
-6.739 -7.769 1.040
-16.211 -6.431 -9.788
-9.597 -3.636 -5.956
-9.597 -3.636 -5.956
-17.258 -6.808 -10.441
-8.162 -7.570 -0.586
-16.272 -6.410 -9.870
-17.257 -6.809 -10.441
-17.257 -6.809 -10.441
-17.257 -6.809 -10.441
-17.257 -6.809 -10.441
-17.257 -6.809 -10.441
-16.272 -6.410 -9.870
-15.759 -6.468 -9.297
-9.598 -3.636 -5.957
-9.598 -3.636 -5.957
-17.317 -6.837 -10.472
-17.317 -6.837 -10.472
-6.740 -7.769 1.040
-17.257 -6.809 -10.440
-17.257 -6.809 -10.440
-16.211 -6.431 -9.788
-15.759 -6.468 -9.297
-17.176 -6.808 -10.360
-16.212 -6.431 -9.789
-16.212 -6.431 -9.789
-16.212 -6.431 -9.789
-16.212 -6.431 -9.789
-16.271 -6.410 -9.869
-17.317 -6.837 -10.472
-17.317 -6.837 -10.472
-9.951 -4.480 -5.470
-17.317 -6.837 -10.472
-8.209 -7.564 -0.639
-17.257 -6.809 -10.441
-17.257 -6.809 -10.441
-17.257 -6.809 -10.441
-6.740 -7.769 1.039
-16.211 -6.431 -9.788
-17.317 -6.837 -10.472
-16.211 -6.431 -9.788
-8.162 -7.570 -0.586
-8.162 -7.570 -0.586
-16.212 -6.431 -9.789
-16.212 -6.431 -9.789
-17.317 -6.837 -10.472
-16.212 -6.431 -9.789
-6.087 -7.811 1.734
-16.537 -6.432 -10.115
-16.537 -6.432 -10.114
-16.537 -6.432 -10.114
-16.270 -6.410 -9.869
-17.317 -6.837 -10.472
-9.882 -4.567 -5.313
-17.268 -6.806 -10.454
-17.268 -6.806 -10.454
-9.906 -4.587 -5.317
-17.328 -6.835 -10.485
-17.328 -6.835 -10.485
-17.328 -6.835 -10.485
-16.222 -6.429 -9.802
-9.772 -3.377 -6.391
-16.284 -6.408 -9.885
-17.188 -6.806 -10.374
-16.284 -6.408 -9.885
-16.284 -6.408 -9.885
-17.612 -6.849 -10.754
-6.090 -7.813 1.733
-17.328 -6.835 -10.485
-17.328 -6.835 -10.485
-17.328 -6.835 -10.485
-5.817 -7.124 1.317
-17.328 -6.835 -10.485
-17.267 -6.807 -10.453
-6.090 -7.813 1.733
-17.328 -6.835 -10.485
-17.328 -6.835 -10.485
-17.328 -6.835 -10.485
-17.328 -6.835 -10.485
-17.328 -6.835 -10.485
-17.267 -6.807 -10.453
-17.612 -6.849 -10.754
-17.612 -6.849 -10.754
-17.328 -6.835 -10.485
-17.328 -6.835 -10.485
-16.222 -6.429 -9.802
-18.200 -6.721 -11.471
-3.987 -5.562 1.586
-17.267 -6.807 -10.452
-9.775 -3.373 -6.397
-10.008 -4.454 -5.553
-17.268 -6.806 -10.454
-17.268 -6.806 -10.454
-5.471 -7.110 1.649
-17.328 -6.835 -10.485
-17.328 -6.835 -10.485
-6.090 -7.812 1.732
-6.753 -7.769 1.025
-17.611 -6.849 -10.754
-4.829 -5.922 1.104
-16.222 -6.429 -9.801
-17.328 -6.835 -10.484
-17.328 -6.835 -10.484
-17.328 -6.835 -10.484
-16.281 -6.408 -9.882
-9.903 -4.589 -5.313
-17.268 -6.807 -10.453
-17.328 -6.835 -10.484
-16.222 -6.429 -9.801
-16.222 -6.429 -9.801
-17.612 -6.849 -10.754
-17.328 -6.835 -10.484
-17.328 -6.835 -10.484
-17.328 -6.835 -10.484
-17.328 -6.835 -10.484
-4.838 -5.921 1.094
-16.547 -6.430 -10.127
-16.281 -6.408 -9.881
-16.281 -6.408 -9.881
-17.328 -6.835 -10.484
-17.328 -6.835 -10.484
-9.879 -4.631 -5.246
-17.327 -6.835 -10.484
-9.631 -3.609 -6.017
-9.906 -4.587 -5.316
-16.547 -6.430 -10.127
-6.089 -7.811 1.732
-3.987 -5.562 1.586
-16.280 -6.408 -9.881
-16.280 -6.408 -9.881
-17.327 -6.835 -10.484
-17.327 -6.835 -10.484
-16.222 -6.429 -9.801
-17.327 -6.835 -10.484
-17.327 -6.835 -10.484
-17.327 -6.835 -10.484
-16.547 -6.430 -10.127
-5.817 -7.120 1.314
-17.328 -6.835 -10.485
-9.631 -3.608 -6.018
-17.328 -6.835 -10.485
-18.200 -6.721 -11.471
-17.612 -6.849 -10.754
-17.612 -6.849 -10.754
-9.775 -3.373 -6.397
-6.753 -7.769 1.025
-17.612 -6.849 -10.754
-17.328 -6.835 -10.485
-6.090 -7.812 1.733
-17.328 -6.835 -10.485
-17.328 -6.835 -10.485
-17.328 -6.835 -10.485
-16.281 -6.408 -9.882
-17.612 -6.849 -10.754
-17.328 -6.835 -10.485
-16.281 -6.408 -9.882
-6.251 -7.816 1.575
-16.164 -6.434 -9.739
-9.582 -3.661 -5.916
-16.164 -6.434 -9.739
-17.213 -6.811 -10.394
-4.820 -5.923 1.113
-9.550 -3.733 -5.811
-18.193 -6.722 -11.462
-9.973 -4.746 -5.224
-6.759 -7.770 1.021
-16.221 -6.429 -9.801
-3.987 -5.562 1.586
-3.987 -5.562 1.586
-6.088 -7.810 1.732
-9.900 -4.591 -5.308
-16.282 -6.408 -9.884
-17.268 -6.807 -10.454
-17.328 -6.835 -10.485
-9.693 -3.501 -6.187
-16.283 -6.408 -9.884
-9.769 -3.382 -6.383
-4.840 -5.921 1.092
-17.612 -6.849 -10.754
-17.612 -6.849 -10.754
-17.328 -6.835 -10.485
-17.328 -6.835 -10.485
-16.222 -6.429 -9.801
-4.840 -5.921 1.092
-16.222 -6.429 -9.801
-16.222 -6.429 -9.801
-4.831 -5.922 1.102
-17.612 -6.849 -10.754
-10.099 -4.892 -5.204
-10.006 -4.457 -5.547
-17.268 -6.806 -10.454
-17.268 -6.807 -10.454
-5.907 -7.130 1.234
-9.628 -3.613 -6.010
-9.772 -3.378 -6.389
-6.758 -7.770 1.022
-4.829 -5.922 1.104
-17.328 -6.835 -10.485
-4.829 -5.922 1.104
-4.829 -5.922 1.104
-16.222 -6.429 -9.801
-9.901 -4.591 -5.308
-9.901 -4.591 -5.308
-6.090 -7.811 1.731
-9.625 -3.615 -6.005
-4.831 -5.922 1.102
-4.840 -5.921 1.092
-17.328 -6.835 -10.485
-5.718 -7.112 1.406
-6.089 -7.812 1.733
-5.693 -7.108 1.425
-6.414 -7.729 1.324
-17.328 -6.835 -10.484
-4.838 -5.922 1.095
-16.547 -6.429 -10.127
-4.831 -5.922 1.102
-9.769 -3.382 -6.383
-9.769 -3.382 -6.383
-17.328 -6.835 -10.484
-17.328 -6.835 -10.484
-3.987 -5.562 1.586
-4.838 -5.922 1.095
-9.628 -3.613 -6.010
-5.615 -7.266 1.661
-9.903 -4.589 -5.312
-4.829 -5.922 1.104
-17.328 -6.835 -10.484
-16.280 -6.408 -9.881
-16.280 -6.408 -9.881
-4.831 -5.922 1.102
-4.840 -5.921 1.092
-10.003 -4.458 -5.544
-9.900 -4.591 -5.308
-9.900 -4.591 -5.308
-9.625 -3.616 -6.005
-9.769 -3.382 -6.383
-9.625 -3.616 -6.005
-4.613 -5.891 1.289
-4.831 -5.922 1.102
-4.831 -5.922 1.102
-4.831 -5.922 1.102
-17.328 -6.835 -10.484
-17.328 -6.835 -10.484
-17.612 -6.849 -10.754
-4.838 -5.922 1.095
-4.838 -5.922 1.095
-17.328 -6.835 -10.484
-17.328 -6.835 -10.484
-4.829 -5.922 1.104
-9.903 -4.589 -5.311
-3.616 -5.613 2.007
-3.987 -5.562 1.587
-3.987 -5.562 1.587
-3.987 -5.562 1.587
-6.758 -7.770 1.022
-9.628 -3.613 -6.010
-17.611 -6.849 -10.753
-9.772 -3.379 -6.389
-9.880 -4.569 -5.309
-4.829 -5.922 1.104
-4.838 -5.922 1.095
-17.611 -6.849 -10.754
-4.838 -5.922 1.095
-6.089 -7.812 1.733
-17.268 -6.807 -10.454
-17.612 -6.849 -10.754
-4.838 -5.922 1.095
-4.838 -5.922 1.095
-17.328 -6.835 -10.485
-5.817 -7.124 1.318
-9.772 -3.378 -6.390
-9.772 -3.378 -6.390
-9.629 -3.612 -6.011
-10.006 -4.455 -5.549
-4.829 -5.922 1.104
-17.328 -6.835 -10.485
-5.470 -7.110 1.650
-17.328 -6.835 -10.485
-9.904 -4.589 -5.313
-9.904 -4.589 -5.313
-9.629 -3.612 -6.011
-9.629 -3.612 -6.011
-9.629 -3.612 -6.011
-9.629 -3.612 -6.011
-4.829 -5.922 1.104
-6.089 -7.812 1.733
-4.829 -5.922 1.104
-17.612 -6.849 -10.754
-3.987 -5.562 1.586
-6.088 -7.812 1.734
-3.945 -5.563 1.629
-9.629 -3.612 -6.011
-6.090 -7.812 1.732
-6.090 -7.812 1.733
-3.987 -5.562 1.587
-3.987 -5.562 1.587
-9.629 -3.612 -6.011
-9.629 -3.612 -6.011
-9.629 -3.612 -6.011
-4.829 -5.922 1.104
-16.222 -6.429 -9.801
-9.877 -4.570 -5.305
-4.831 -5.922 1.102
-9.875 -4.634 -5.239
-9.769 -3.381 -6.384
-9.769 -3.381 -6.384
-9.626 -3.615 -6.006
-4.831 -5.922 1.102
-9.626 -3.615 -6.005
-9.626 -3.615 -6.006
-9.626 -3.615 -6.005
-9.626 -3.615 -6.006
-4.831 -5.922 1.102
-9.626 -3.615 -6.006
-17.268 -6.806 -10.454
-4.829 -5.922 1.104
-4.829 -5.922 1.104
-6.758 -7.770 1.022
-9.628 -3.612 -6.011
-6.094 -7.811 1.728
-6.094 -7.811 1.728
-6.094 -7.811 1.728
-9.877 -4.632 -5.243
-9.629 -3.612 -6.011
-10.006 -4.456 -5.549
-9.772 -3.378 -6.390
-17.328 -6.835 -10.485
-6.089 -7.812 1.733
-6.089 -7.812 1.733
-6.089 -7.812 1.733
-9.786 -3.167 -6.616
-4.837 -5.922 1.096
-6.090 -7.812 1.732
-9.854 -3.300 -6.550
-9.949 -4.516 -5.432
-9.949 -4.516 -5.432
-9.667 -3.624 -6.037
-4.837 -5.922 1.096
-4.846 -5.921 1.086
-3.987 -5.562 1.587
-4.837 -5.922 1.096
-6.090 -7.812 1.732
-6.090 -7.812 1.732
-6.769 -7.769 1.010
-17.336 -6.834 -10.494
-17.620 -6.848 -10.763
-17.336 -6.834 -10.494
-9.946 -4.584 -5.360
-9.946 -4.584 -5.360
-9.667 -3.625 -6.037
-9.667 -3.624 -6.037
-9.708 -3.539 -6.164
-9.708 -3.539 -6.164
-9.848 -4.647 -5.199
-5.750 -7.112 1.374
-6.089 -7.812 1.732
-6.089 -7.812 1.732
-6.089 -7.812 1.732
-17.620 -6.848 -10.763
-6.093 -7.811 1.728
-9.709 -3.539 -6.165
-9.709 -3.539 -6.165
-9.709 -3.539 -6.165
-4.837 -5.922 1.096
-4.837 -5.922 1.096
-4.837 -5.922 1.096
-9.709 -3.539 -6.165
-4.837 -5.922 1.096
-3.987 -5.562 1.587
-10.076 -4.401 -5.674
-9.667 -3.624 -6.037
-9.946 -4.584 -5.360
-6.090 -7.812 1.732
-6.436 -7.728 1.301
-9.949 -4.516 -5.432
-9.709 -3.539 -6.165
-6.090 -7.812 1.732
-9.709 -3.539 -6.165
-3.986 -5.562 1.587
-3.986 -5.562 1.587
-9.709 -3.539 -6.165
-4.837 -5.922 1.096
-9.709 -3.539 -6.165
-3.986 -5.562 1.587
-3.986 -5.562 1.587
-4.050 -5.588 1.548
-9.708 -3.539 -6.164
-9.946 -4.584 -5.360
-9.708 -3.540 -6.164
-9.708 -3.540 -6.164
-4.619 -5.891 1.282
-4.619 -5.891 1.282
-4.619 -5.891 1.282
-9.810 -4.665 -5.142
-9.586 -3.655 -5.926
-6.115 -7.793 1.688
-6.115 -7.793 1.688
-6.115 -7.793 1.688
-6.120 -7.792 1.682
-9.549 -3.727 -5.817
-9.838 -4.618 -5.218
-9.838 -4.618 -5.218
-9.549 -3.727 -5.817
-9.549 -3.727 -5.817
-9.544 -3.740 -5.799
-4.845 -5.917 1.084
-9.894 -4.594 -5.299
-9.620 -3.622 -5.993
-9.776 -3.180 -6.593
-9.937 -4.589 -5.346
-6.119 -7.793 1.684
-9.963 -4.544 -5.418
-9.963 -4.544 -5.418
-9.700 -3.549 -6.146
-9.658 -3.633 -6.020
-9.937 -4.589 -5.346
-9.700 -3.549 -6.146
-6.119 -7.793 1.684
-5.484 -7.076 1.602
-5.484 -7.077 1.602
-9.937 -4.589 -5.346
-9.937 -4.589 -5.346
-9.776 -3.180 -6.593
-9.963 -4.544 -5.418
-6.119 -7.793 1.684
-4.053 -5.587 1.545
-9.963 -4.544 -5.417
-9.700 -3.549 -6.146
-4.862 -5.916 1.065
-9.700 -3.549 -6.146
-9.700 -3.549 -6.146
-9.700 -3.549 -6.146
-9.700 -3.549 -6.146
-6.415 -7.728 1.323
-4.853 -5.917 1.075
-3.796 -5.903 2.117
-9.700 -3.549 -6.146
-6.119 -7.793 1.684
-6.119 -7.793 1.684
-4.853 -5.917 1.075
-9.963 -4.544 -5.418
-3.986 -5.562 1.587
-3.589 -5.543 1.965
-3.986 -5.562 1.587
-3.986 -5.562 1.587
-9.937 -4.589 -5.346
-6.119 -7.793 1.684
-6.119 -7.793 1.684
-6.119 -7.793 1.684
-9.624 -3.667 -5.951
-9.937 -4.589 -5.346
-6.119 -7.793 1.684
-6.119 -7.793 1.684
-9.658 -3.633 -6.020
-9.937 -4.589 -5.346
-6.119 -7.793 1.684
-4.853 -5.917 1.075
-4.853 -5.917 1.075
-4.853 -5.917 1.075
-9.937 -4.589 -5.346
-4.853 -5.917 1.075
-4.853 -5.917 1.075
-9.700 -3.549 -6.146
-9.937 -4.589 -5.346
-9.658 -3.633 -6.020
-6.119 -7.793 1.684
-9.963 -4.544 -5.418
-9.937 -4.589 -5.346
-4.853 -5.917 1.075
-6.118 -7.793 1.685
-6.118 -7.793 1.685
-4.853 -5.917 1.075
-6.118 -7.793 1.685
-9.937 -4.589 -5.346
-3.589 -5.542 1.965
-10.398 -3.634 -6.765
-9.811 -3.408 -6.399
-6.159 -7.488 1.340
-6.159 -7.488 1.340
-6.159 -7.488 1.340
-6.159 -7.488 1.340
-6.159 -7.488 1.340
-4.176 -6.156 1.991
-4.295 -6.187 1.903
-4.295 -6.187 1.903
-4.295 -6.187 1.903
-4.295 -6.187 1.903
-4.295 -6.187 1.903
-6.598 -7.443 0.856
-4.295 -6.187 1.903
-6.598 -7.443 0.856
-4.295 -6.187 1.903
-4.295 -6.187 1.903
-6.598 -7.443 0.856
-4.295 -6.187 1.903
-4.295 -6.187 1.903
-6.598 -7.443 0.856
-6.598 -7.443 0.856
-4.295 -6.187 1.903
-4.295 -6.187 1.903
-4.295 -6.187 1.903
-4.328 -6.191 1.874
-4.170 -5.756 1.597
-4.329 -6.191 1.873
-4.297 -6.187 1.901
-4.297 -6.187 1.901
-4.297 -6.187 1.901
-6.585 -7.443 0.869
-4.297 -6.187 1.901
-4.297 -6.187 1.901
-4.297 -6.187 1.901
-4.297 -6.187 1.901
-4.225 -5.758 1.545
-4.297 -6.187 1.901
-4.076 -6.211 2.146
-4.170 -5.756 1.597
-6.601 -7.443 0.854
-6.601 -7.443 0.854
-4.297 -6.187 1.901
-6.601 -7.443 0.854
-4.270 -6.187 1.928
-4.270 -6.187 1.929
-4.297 -6.187 1.901
-4.297 -6.187 1.901
-4.255 -6.188 1.943
-4.279 -6.188 1.920
-6.601 -7.443 0.854
-4.296 -6.187 1.902
-4.296 -6.187 1.902
-4.170 -5.756 1.597
-4.225 -5.758 1.545
-4.225 -5.758 1.545
-4.266 -6.188 1.933
-4.225 -5.758 1.545
-4.225 -5.758 1.545
-4.076 -6.211 2.146
-4.225 -5.758 1.545
-4.279 -6.188 1.919
-4.170 -5.756 1.597
-4.255 -6.188 1.943
-4.296 -6.187 1.902
-4.255 -6.188 1.943
-4.255 -6.188 1.943
-4.296 -6.187 1.902
-4.224 -5.759 1.546
-3.762 -5.461 1.710
-4.269 -6.187 1.929
-4.279 -6.188 1.920
-4.297 -6.187 1.901
-4.266 -6.188 1.933
-4.467 -5.751 1.295
-4.467 -5.751 1.295
-4.329 -6.191 1.873
-4.279 -6.188 1.919
-4.255 -6.188 1.943
-4.296 -6.187 1.902
-4.224 -5.759 1.546
-4.266 -6.188 1.933
-4.224 -5.759 1.546
-4.822 -6.339 1.528
-4.467 -5.750 1.294
-4.606 -5.698 1.103
-4.132 -6.219 2.098
-4.296 -6.187 1.902
-4.296 -6.187 1.902
-4.185 -6.170 1.995
-3.738 -5.448 1.721
-4.212 -5.759 1.558
-6.591 -7.441 0.862
-4.263 -5.758 1.506
-4.263 -6.180 1.928
-4.159 -5.756 1.608
-4.236 -6.180 1.955
-4.415 -6.235 1.831
-4.263 -6.180 1.928
-6.348 -7.519 1.183
-4.264 -5.758 1.506
-4.245 -6.181 1.946
-4.245 -6.181 1.946
-4.245 -6.181 1.946
-4.245 -6.181 1.946
-4.232 -6.181 1.960
-4.232 -6.181 1.960
-4.232 -6.181 1.960
-4.263 -6.180 1.928
-4.221 -6.181 1.970
-4.584 -5.697 1.124
-6.618 -7.444 0.837
-3.749 -5.449 1.711
-4.264 -5.758 1.505
-4.221 -6.181 1.971
-4.235 -6.180 1.956
-4.212 -5.759 1.559
-6.590 -7.441 0.862
-4.245 -6.181 1.947
-4.264 -5.758 1.505
-4.232 -6.181 1.960
-4.232 -6.181 1.960
-4.232 -6.181 1.960
-4.232 -6.181 1.960
-6.618 -7.444 0.837
-4.263 -6.180 1.929
-4.263 -6.180 1.929
-4.235 -6.180 1.956
-4.235 -6.180 1.956
-4.263 -6.180 1.929
-4.263 -6.180 1.929
-4.232 -6.181 1.960
-4.295 -6.184 1.900
-4.295 -6.184 1.900
-4.462 -5.751 1.300
-6.332 -7.518 1.197
-4.245 -6.181 1.947
-3.750 -5.449 1.711
-4.235 -6.180 1.956
-4.235 -6.180 1.956
-6.618 -7.444 0.837
-6.590 -7.441 0.862
-4.235 -6.180 1.956
-4.235 -6.180 1.956
-4.245 -6.181 1.947
-4.213 -5.759 1.557
-4.213 -5.758 1.557
-4.234 -5.761 1.538
-4.232 -6.181 1.960
-4.232 -6.181 1.960
-4.232 -6.181 1.960
-4.232 -6.181 1.960
-4.232 -6.181 1.960
-3.873 -5.027 1.165
-4.082 -6.212 2.141
-4.082 -6.212 2.141
-3.791 -5.472 1.692
-4.322 -6.193 1.881
-4.241 -5.756 1.527
-4.241 -5.756 1.527
-4.241 -5.756 1.527
-6.382 -7.536 1.165
-4.304 -6.193 1.899
-4.304 -6.193 1.899
-4.304 -6.193 1.899
-4.304 -6.193 1.899
-4.304 -6.193 1.899
-6.382 -7.536 1.165
-4.304 -6.193 1.899
-4.304 -6.193 1.899
-3.791 -5.472 1.692
-3.791 -5.472 1.692
-4.257 -5.758 1.513
-3.812 -5.470 1.670
-4.082 -6.212 2.141
-4.211 -6.177 1.976
-4.288 -6.186 1.908
-6.590 -7.441 0.863
-4.237 -6.180 1.954
-4.264 -6.180 1.927
-4.246 -6.181 1.945
-4.820 -6.341 1.532
-4.158 -5.756 1.610
-4.806 -6.341 1.545
-4.263 -6.180 1.928
-4.263 -6.180 1.928
-4.245 -6.181 1.946
-4.263 -6.180 1.928
-6.590 -7.441 0.863
-6.590 -7.441 0.863
-4.263 -6.180 1.928
-6.347 -7.519 1.184
-4.222 -6.181 1.970
-6.590 -7.441 0.862
-4.263 -6.180 1.928
-4.245 -6.181 1.946
-4.263 -6.180 1.928
-4.233 -6.181 1.960
-4.233 -6.181 1.960
-4.233 -6.181 1.960
-4.233 -6.181 1.960
-4.245 -6.181 1.946
-4.245 -6.181 1.946
-4.263 -6.180 1.928
-3.749 -5.449 1.711
-3.749 -5.449 1.711
-6.590 -7.441 0.862
-6.590 -7.441 0.863
-4.262 -5.758 1.507
-4.233 -6.181 1.959
-6.590 -7.441 0.863
-4.245 -6.181 1.946
-4.245 -6.181 1.946
-4.236 -6.180 1.955
-4.236 -6.180 1.955
-6.347 -7.519 1.184
-4.212 -5.759 1.558
-4.263 -6.180 1.928
-6.590 -7.441 0.863
-3.770 -5.447 1.688
-4.233 -6.181 1.959
-4.233 -6.181 1.959
-6.332 -7.518 1.198
-6.966 -7.535 0.580
-6.332 -7.518 1.198
-4.263 -6.180 1.928
-4.263 -6.180 1.928
-6.332 -7.518 1.198
-4.005 -6.207 2.214
-6.773 -7.489 0.728
-6.773 -7.489 0.728
-4.236 -6.180 1.955
-4.263 -6.180 1.928
-4.263 -6.180 1.928
-4.263 -6.180 1.928
-4.245 -6.181 1.946
-3.770 -5.447 1.688
-3.770 -5.447 1.688
-6.590 -7.441 0.863
-6.590 -7.441 0.863
-4.233 -6.181 1.959
-4.264 -5.758 1.506
-4.264 -5.758 1.506
-4.107 -6.223 2.127
-4.264 -5.758 1.506
-4.263 -6.180 1.928
-6.332 -7.518 1.198
-4.263 -6.180 1.928
-4.296 -6.184 1.899
-6.590 -7.441 0.862
-4.233 -6.181 1.959
-4.263 -6.180 1.928
-4.263 -6.180 1.928
-4.263 -6.180 1.928
-4.264 -5.758 1.506
-4.107 -6.223 2.127
-4.264 -5.758 1.506
-3.770 -5.447 1.688
-3.770 -5.447 1.688
-4.246 -6.181 1.946
-4.809 -6.341 1.543
-4.233 -6.181 1.960
-4.263 -6.180 1.928
-3.770 -5.447 1.688
-4.263 -6.180 1.928
-4.263 -6.180 1.928
-4.416 -6.235 1.830
-6.347 -7.519 1.183
-4.028 -5.564 1.548
-4.296 -6.184 1.899
-6.347 -7.519 1.184
-3.732 -5.444 1.723
-4.233 -6.181 1.960
-6.590 -7.441 0.862
-4.263 -6.180 1.928
-4.245 -6.181 1.946
-4.233 -6.181 1.960
-4.236 -6.180 1.955
-4.245 -6.181 1.946
-6.773 -7.489 0.728
-4.263 -6.180 1.928
-4.263 -6.180 1.928
-4.245 -6.181 1.946
-4.263 -6.180 1.928
-3.749 -5.449 1.711
-6.963 -7.535 0.583
-3.732 -5.444 1.723
-6.347 -7.519 1.184
-6.966 -7.535 0.580
-3.749 -5.449 1.711
-6.757 -7.488 0.743
-3.770 -5.447 1.688
-6.347 -7.519 1.184
-6.328 -7.517 1.201
-6.332 -7.518 1.197
-6.347 -7.519 1.183
-6.347 -7.519 1.183
-6.347 -7.519 1.183
-4.245 -6.181 1.946
-6.347 -7.519 1.183
-4.263 -6.180 1.928
-6.590 -7.441 0.862
-6.590 -7.441 0.862
-6.590 -7.441 0.862
-4.232 -6.181 1.960
-4.158 -5.756 1.610
-4.245 -6.181 1.946
-3.749 -5.449 1.711
-4.245 -6.181 1.946
-4.245 -6.181 1.946
-4.263 -6.180 1.928
-4.263 -6.180 1.928
-4.263 -6.180 1.928
-4.263 -6.180 1.928
-3.770 -5.447 1.688
-4.263 -6.180 1.928
-6.332 -7.518 1.197
-6.590 -7.441 0.862
-4.296 -6.184 1.899
-4.296 -6.184 1.899
-4.583 -5.697 1.125
-6.773 -7.489 0.727
-4.592 -5.697 1.116
-4.245 -6.181 1.946
-6.332 -7.518 1.197
-6.328 -7.517 1.201
-4.245 -6.181 1.946
-6.332 -7.518 1.197
-4.245 -6.181 1.946
-4.245 -6.181 1.946
-4.245 -6.181 1.946
-4.263 -6.180 1.928
-4.245 -6.181 1.946
-3.749 -5.449 1.711
-3.749 -5.449 1.711
-6.590 -7.441 0.862
-4.232 -6.181 1.959
-6.328 -7.517 1.200
-4.028 -5.564 1.548
-4.263 -6.180 1.928
-4.809 -6.341 1.543
-6.332 -7.518 1.197
-6.332 -7.518 1.197
-6.332 -7.518 1.197
-4.245 -6.181 1.946
-4.416 -6.235 1.830
-4.263 -6.180 1.928
-4.245 -6.181 1.946
-6.332 -7.518 1.197
-6.332 -7.518 1.197
-6.332 -7.518 1.197
-4.245 -6.181 1.946
-3.770 -5.447 1.688
-3.770 -5.447 1.688
-4.245 -6.181 1.946
-4.263 -6.180 1.928
-6.328 -7.517 1.200
-4.087 -6.215 2.139
-6.590 -7.441 0.862
-6.332 -7.518 1.197
-6.328 -7.517 1.200
-4.263 -6.180 1.928
-4.264 -5.758 1.506
-6.590 -7.441 0.862
-6.590 -7.441 0.862
-4.263 -6.180 1.928
-4.263 -6.180 1.928
-6.347 -7.519 1.183
-4.263 -6.180 1.928
-4.439 -6.235 1.807
-4.236 -6.180 1.955
-4.236 -6.180 1.955
-6.332 -7.518 1.197
-4.028 -5.564 1.548
-4.412 -6.234 1.834
-6.773 -7.489 0.727
-6.332 -7.518 1.197
-4.583 -5.697 1.126
-3.732 -5.444 1.723
-4.263 -6.180 1.928
-6.773 -7.489 0.727
-4.263 -6.180 1.928
-4.439 -6.235 1.807
-6.773 -7.489 0.727
-4.245 -6.181 1.946
-6.332 -7.518 1.197
-4.262 -5.758 1.507
-4.263 -6.180 1.928
-4.263 -6.180 1.928
-4.323 -6.192 1.880
-4.323 -6.192 1.880
-6.368 -7.535 1.178
-3.815 -5.469 1.665
-6.368 -7.535 1.178
-4.485 -6.242 1.768
-6.601 -7.443 0.854
-6.601 -7.443 0.854
-3.620 -3.987 0.378
-3.799 -5.460 1.673
-4.271 -6.187 1.927
-4.473 -6.241 1.779
-4.250 -5.758 1.519
-4.298 -6.187 1.900
-4.250 -5.758 1.519
-6.357 -7.521 1.175
-4.469 -6.240 1.782
-6.357 -7.521 1.175
-4.280 -6.188 1.918
-4.056 -5.573 1.529
-4.448 -6.240 1.803
-4.448 -6.240 1.803
-4.279 -6.188 1.919
-6.357 -7.521 1.175
-6.357 -7.521 1.175
-6.339 -7.519 1.192
-4.297 -6.187 1.901
-4.243 -5.761 1.529
-4.279 -6.187 1.919
-4.472 -6.240 1.780
-6.601 -7.443 0.854
-6.601 -7.443 0.854
-4.297 -6.187 1.901
-4.297 -6.187 1.901
-3.794 -5.461 1.678
-6.971 -7.536 0.577
-6.971 -7.536 0.577
-4.279 -6.187 1.919
-6.342 -7.520 1.189
-6.342 -7.520 1.189
-6.783 -7.491 0.719
-4.267 -6.188 1.932
-6.971 -7.536 0.576
-4.054 -5.573 1.530
-4.279 -6.187 1.919
-4.279 -6.187 1.919
-6.783 -7.491 0.719
-3.773 -5.463 1.701
-4.297 -6.187 1.901
-6.971 -7.536 0.576
-4.444 -6.240 1.806
-4.330 -6.191 1.872
-6.357 -7.521 1.175
-6.380 -7.525 1.156
-6.783 -7.491 0.719
-4.604 -5.698 1.105
-3.794 -5.461 1.678
-6.357 -7.521 1.175
-6.357 -7.521 1.175
-6.784 -7.491 0.719
-7.403 -7.669 0.277
-4.468 -6.240 1.783
-4.279 -6.187 1.919
-4.267 -6.188 1.932
-4.297 -6.187 1.901
-6.357 -7.521 1.176
-4.468 -6.240 1.783
-4.468 -6.240 1.783
-4.279 -6.187 1.919
-4.267 -6.188 1.932
-4.267 -6.188 1.932
-3.268 -4.536 1.278
-3.154 -4.547 1.404
-9.463 -3.175 -6.285
-6.352 -7.780 1.439
-3.488 -4.608 1.131
-3.154 -4.548 1.403
-3.144 -4.753 1.620
-3.144 -4.753 1.620
-3.488 -4.608 1.131
-3.148 -4.755 1.618
-3.488 -4.608 1.131
-4.199 -6.107 1.918
-3.148 -4.754 1.618
-3.148 -4.754 1.618
-9.424 -3.211 -6.210
-10.006 -2.541 -7.464
-4.201 -6.108 1.917
-3.148 -4.754 1.618
-4.342 -6.666 2.334
-3.143 -4.753 1.621
-3.153 -4.548 1.405
-3.147 -4.755 1.619
-9.065 -5.061 -4.000
-3.650 -6.233 2.592
-4.205 -6.109 1.914
-3.836 -5.671 1.845
-3.147 -4.755 1.619
-4.342 -6.666 2.333
-4.204 -6.108 1.914
-3.649 -6.233 2.593
-4.066 -5.572 1.516
-4.205 -6.109 1.914
-3.147 -4.755 1.618
-4.205 -6.108 1.913
-9.037 -3.777 -5.255
-9.528 -3.225 -6.299
-4.251 -5.585 1.345
-4.251 -5.585 1.345
-4.205 -6.108 1.914
-4.205 -6.108 1.914
-4.205 -6.108 1.914
-4.205 -6.108 1.914
-4.205 -6.108 1.914
-3.686 -5.584 1.910
-4.343 -6.666 2.333
-2.978 -4.542 1.575
-3.836 -5.671 1.845
-4.206 -6.108 1.913
-4.206 -6.108 1.913
-4.206 -6.108 1.913
-4.230 -6.357 2.137
-9.037 -3.778 -5.253
-9.065 -5.061 -4.000
-9.037 -3.778 -5.253
-4.341 -6.665 2.334
-4.110 -5.541 1.442
-9.065 -5.061 -4.000
-4.206 -6.108 1.913
-10.116 -2.513 -7.603
-3.645 -5.354 1.720
-4.201 -6.652 2.461
-4.201 -6.652 2.461
-4.341 -6.665 2.333
-3.997 -5.632 1.646
-4.140 -6.581 2.451
-10.260 -2.498 -7.762
-3.835 -5.670 1.845
-3.835 -5.670 1.845
-4.149 -6.022 1.884
-3.154 -4.548 1.404
-4.229 -6.356 2.138
-4.229 -6.356 2.138
-3.147 -4.755 1.618
-10.334 -2.488 -7.846
-2.588 -4.591 2.015
-2.978 -4.540 1.573
-10.272 -3.764 -6.509
-4.342 -6.665 2.333
-4.205 -6.108 1.914
-4.205 -6.108 1.913
-4.205 -6.109 1.914
-9.527 -3.228 -6.295
-3.144 -4.753 1.620
-3.147 -4.754 1.618
-9.497 -3.080 -6.414
-4.067 -5.572 1.516
-9.497 -3.081 -6.413
-3.943 -6.546 2.613
-3.147 -4.754 1.618
-3.147 -4.754 1.618
-3.147 -4.754 1.618
-4.065 -5.562 1.508
-9.526 -3.229 -6.294
-4.202 -6.652 2.460
-4.139 -6.581 2.452
-4.110 -5.541 1.442
-4.206 -6.109 1.913
-4.206 -6.109 1.913
-4.206 -6.109 1.913
-4.344 -6.665 2.331
-9.065 -5.061 -4.000
-9.528 -3.225 -6.300
-9.528 -3.225 -6.300
-10.116 -2.513 -7.602
-9.528 -3.225 -6.300
-3.144 -4.753 1.620
-3.487 -4.608 1.132
-4.251 -5.585 1.346
-4.149 -6.022 1.884
-4.102 -5.349 1.258
-2.978 -4.541 1.574
-3.144 -4.753 1.620
-4.066 -5.572 1.516
-4.205 -6.108 1.913
-4.065 -5.562 1.508
-3.836 -5.671 1.845
-4.066 -5.572 1.516
-9.763 -4.436 -5.326
-3.154 -4.548 1.404
-10.114 -2.513 -7.601
-4.149 -6.022 1.884
-4.149 -6.022 1.884
-3.144 -4.753 1.620
-3.147 -4.755 1.618
-4.121 -6.001 1.890
-4.346 -6.665 2.330
-4.235 -6.419 2.194
-3.156 -4.548 1.402
-3.156 -4.548 1.402
-10.027 -2.536 -7.490
-4.138 -6.581 2.452
-4.138 -6.581 2.452
-10.114 -2.513 -7.601
-10.114 -2.513 -7.601
-10.114 -2.513 -7.601
-9.775 -2.549 -7.225
-9.763 -4.435 -5.327
-9.775 -2.549 -7.225
-9.775 -2.549 -7.225
-9.763 -4.436 -5.326
-9.775 -2.549 -7.225
-4.251 -5.585 1.345
-4.341 -6.665 2.333
-4.230 -6.357 2.137
-4.234 -6.419 2.195
-4.065 -6.010 1.955
-3.156 -4.548 1.402
-3.147 -4.755 1.618
-3.156 -4.548 1.402
-4.065 -5.562 1.508
-4.234 -6.419 2.195
-4.234 -6.419 2.195
-9.526 -3.229 -6.294
-9.526 -3.228 -6.294
-9.775 -2.549 -7.225
-4.065 -5.562 1.508
-10.119 -2.509 -7.610
-3.942 -6.546 2.614
-4.206 -6.109 1.913
-4.206 -6.109 1.913
-9.775 -2.549 -7.225
-4.206 -6.109 1.913
-4.344 -6.666 2.331
-4.140 -6.581 2.450
-4.140 -6.581 2.450
-4.122 -6.577 2.465
-9.456 -3.352 -6.100
-4.131 -6.581 2.459
-4.131 -6.581 2.460
-4.131 -6.581 2.459
-4.141 -6.022 1.891
-10.055 -2.523 -7.531